
    -----------------------------------------------------------------------
          Psi4: An Open-Source Ab Initio Electronic Structure Package
                               Psi4 1.3.2 release

                         Git: Rev {HEAD} ecbda83 


    R. M. Parrish, L. A. Burns, D. G. A. Smith, A. C. Simmonett,
    A. E. DePrince III, E. G. Hohenstein, U. Bozkaya, A. Yu. Sokolov,
    R. Di Remigio, R. M. Richard, J. F. Gonthier, A. M. James,
    H. R. McAlexander, A. Kumar, M. Saitow, X. Wang, B. P. Pritchard,
    P. Verma, H. F. Schaefer III, K. Patkowski, R. A. King, E. F. Valeev,
    F. A. Evangelista, J. M. Turney, T. D. Crawford, and C. D. Sherrill,
    J. Chem. Theory Comput. 13(7) pp 3185--3197 (2017).
    (doi: 10.1021/acs.jctc.7b00174)


                         Additional Contributions by
    P. Kraus, H. Kruse, M. H. Lechner, M. C. Schieber, R. A. Shaw,
    A. Alenaizan, R. Galvelis, Z. L. Glick, S. Lehtola, and J. P. Misiewicz

    -----------------------------------------------------------------------


    Psi4 started on: Friday, 10 September 2021 05:58PM

    Process ID: 56938
    Host:       r282
    PSIDATADIR: /home/r08543048/miniconda3/share/psi4
    Memory:     500.0 MiB
    Threads:    1
    
  ==> Input File <==

--------------------------------------------------------------------------
# Any line starting with the # character is a comment line
#! Sample  computation

memory 22 gb

molecule Dimer {
0 1
 C 1.991115    0.068346   -0.000254
 O 1.385903    1.133815    0.000159
 O 1.407942   -1.121443   -0.000020
 H 0.410684   -1.022004    0.000328
 C 3.487865   -0.031277   -0.000027
 H 3.924138    0.960947   -0.001259
 H 3.812212   -0.585874    0.878357
 H 3.812461   -0.588353   -0.876725
 
 
 

    
    
 --
0 1
 C  -3.474141   -0.206034   -0.000028
 C  -1.977158   -0.051682   -0.000027
 O  -1.246585   -1.052913    0.000073
 N  -1.486353    1.197554   -0.000054
 H  -3.760829   -0.780853   -0.877940
 H  -3.760982   -0.779209    0.878921
 H  -4.000507    0.745226   -0.000931
 H  -0.474357    1.326961    0.000080
 H  -2.102522    1.988490   -0.000131
  
  
  
 
 
 
 
 
 
units angstrom

no_reorient
symmetry c1
}

set globals{
  basis jun-cc-pvtz
}

energy('sapt0')


--------------------------------------------------------------------------

  Memory set to  20.489 GiB by Python driver.

  //>>>>>>>>>>>>>>>>>>>>>>>>>>>>>>>>>>>//
  //              Dimer HF             //
  //<<<<<<<<<<<<<<<<<<<<<<<<<<<<<<<<<<<//


*** tstart() called on r282
*** at Fri Sep 10 17:58:31 2021

   => Loading Basis Set <=

    Name: JUN-CC-PVTZ
    Role: ORBITAL
    Keyword: BASIS
    atoms 1, 5, 9-10    entry C          line   217 file /home/r08543048/miniconda3/share/psi4/basis/jun-cc-pvtz.gbs 
    atoms 2-3, 11       entry O          line   305 file /home/r08543048/miniconda3/share/psi4/basis/jun-cc-pvtz.gbs 
    atoms 4, 6-8, 13-17 entry H          line    36 file /home/r08543048/miniconda3/share/psi4/basis/jun-cc-pvtz.gbs 
    atoms 12            entry N          line   261 file /home/r08543048/miniconda3/share/psi4/basis/jun-cc-pvtz.gbs 


         ---------------------------------------------------------
                                   SCF
               by Justin Turney, Rob Parrish, Andy Simmonett
                          and Daniel G. A. Smith
                              RHF Reference
                        1 Threads,  20980 MiB Core
         ---------------------------------------------------------

  ==> Geometry <==

    Molecular point group: c1
    Full point group: C1

    Geometry (in Angstrom), charge = 0, multiplicity = 1:

       Center              X                  Y                   Z               Mass       
    ------------   -----------------  -----------------  -----------------  -----------------
         C            1.973388320641     0.078815320544    -0.000248189679    12.000000000000
         O            1.368176320641     1.144284320544     0.000164810321    15.994914619570
         O            1.390215320641    -1.110973679456    -0.000014189679    15.994914619570
         H            0.392957320641    -1.011534679456     0.000333810321     1.007825032230
         C            3.470138320641    -0.020807679456    -0.000021189679    12.000000000000
         H            3.906411320641     0.971416320544    -0.001253189679     1.007825032230
         H            3.794485320641    -0.575404679456     0.878362810321     1.007825032230
         H            3.794734320641    -0.577883679456    -0.876719189679     1.007825032230
         C           -3.491867679359    -0.195564679456    -0.000022189679    12.000000000000
         C           -1.994884679359    -0.041212679456    -0.000021189679    12.000000000000
         O           -1.264311679359    -1.042443679456     0.000078810321    15.994914619570
         N           -1.504079679359     1.208023320544    -0.000048189679    14.003074004430
         H           -3.778555679359    -0.770383679456    -0.877934189679     1.007825032230
         H           -3.778708679359    -0.768739679456     0.878926810321     1.007825032230
         H           -4.018233679359     0.755695320544    -0.000925189679     1.007825032230
         H           -0.492083679359     1.337430320544     0.000085810321     1.007825032230
         H           -2.120248679359     1.998959320544    -0.000125189679     1.007825032230

  Running in c1 symmetry.

  Rotational constants: A =      0.18244  B =      0.02805  C =      0.02453 [cm^-1]
  Rotational constants: A =   5469.35130  B =    841.01238  C =    735.52007 [MHz]
  Nuclear repulsion =  377.441795837435961

  Charge       = 0
  Multiplicity = 1
  Electrons    = 64
  Nalpha       = 32
  Nbeta        = 32

  ==> Algorithm <==

  SCF Algorithm Type is DF.
  DIIS enabled.
  MOM disabled.
  Fractional occupation disabled.
  Guess Type is SAD.
  Energy threshold   = 1.00e-08
  Density threshold  = 1.00e-08
  Integral threshold = 0.00e+00

  ==> Primary Basis <==

  Basis Set: JUN-CC-PVTZ
    Blend: JUN-CC-PVTZ
    Number of shells: 158
    Number of basis function: 438
    Number of Cartesian functions: 495
    Spherical Harmonics?: true
    Max angular momentum: 3

   => Loading Basis Set <=

    Name: (JUN-CC-PVTZ AUX)
    Role: JKFIT
    Keyword: DF_BASIS_SCF
    atoms 1, 5, 9-10    entry C          line   152 file /home/r08543048/miniconda3/share/psi4/basis/jun-cc-pvtz-jkfit.gbs 
    atoms 2-3, 11       entry O          line   272 file /home/r08543048/miniconda3/share/psi4/basis/jun-cc-pvtz-jkfit.gbs 
    atoms 4, 6-8, 13-17 entry H          line    70 file /home/r08543048/miniconda3/share/psi4/basis/jun-cc-pvtz-jkfit.gbs 
    atoms 12            entry N          line   212 file /home/r08543048/miniconda3/share/psi4/basis/jun-cc-pvtz-jkfit.gbs 

  ==> Pre-Iterations <==

   -------------------------------------------------------
    Irrep   Nso     Nmo     Nalpha   Nbeta   Ndocc  Nsocc
   -------------------------------------------------------
     A        438     438       0       0       0       0
   -------------------------------------------------------
    Total     438     438      32      32      32       0
   -------------------------------------------------------

  ==> Integral Setup <==

  ==> DiskDFJK: Density-Fitted J/K Matrices <==

    J tasked:                  Yes
    K tasked:                  Yes
    wK tasked:                  No
    OpenMP threads:              1
    Integrals threads:           1
    Memory [MiB]:            15735
    Algorithm:                Core
    Integral Cache:           SAVE
    Schwarz Cutoff:          1E-12
    Fitting Condition:       1E-10

   => Auxiliary Basis Set <=

  Basis Set: (JUN-CC-PVTZ AUX)
    Blend: JUN-CC-PVTZ-JKFIT
    Number of shells: 322
    Number of basis function: 1030
    Number of Cartesian functions: 1243
    Spherical Harmonics?: true
    Max angular momentum: 4

  Minimum eigenvalue in the overlap matrix is 4.4676414938E-05.
  Using Symmetric Orthogonalization.

  SCF Guess: Superposition of Atomic Densities via on-the-fly atomic UHF.

  ==> Iterations <==

                           Total Energy        Delta E     RMS |[F,P]|

   @DF-RHF iter SAD:  -434.51113814205826   -4.34511e+02   0.00000e+00 
   @DF-RHF iter   1:  -435.68920010265361   -1.17806e+00   1.84754e-03 DIIS
   @DF-RHF iter   2:  -435.91611182851864   -2.26912e-01   1.01948e-03 DIIS
   @DF-RHF iter   3:  -435.98041363636395   -6.43018e-02   1.85931e-04 DIIS
   @DF-RHF iter   4:  -435.98440259710259   -3.98896e-03   7.93092e-05 DIIS
   @DF-RHF iter   5:  -435.98516692619273   -7.64329e-04   1.72808e-05 DIIS
   @DF-RHF iter   6:  -435.98522006862709   -5.31424e-05   8.60464e-06 DIIS
   @DF-RHF iter   7:  -435.98523202180218   -1.19532e-05   2.67360e-06 DIIS
   @DF-RHF iter   8:  -435.98523419529698   -2.17349e-06   9.96645e-07 DIIS
   @DF-RHF iter   9:  -435.98523448447918   -2.89182e-07   3.87134e-07 DIIS
   @DF-RHF iter  10:  -435.98523451709110   -3.26119e-08   1.19571e-07 DIIS
   @DF-RHF iter  11:  -435.98523451989314   -2.80204e-09   4.45500e-08 DIIS
   @DF-RHF iter  12:  -435.98523452012603   -2.32887e-10   1.44441e-08 DIIS
   @DF-RHF iter  13:  -435.98523452016275   -3.67208e-11   3.54475e-09 DIIS
  Energy and wave function converged.


  ==> Post-Iterations <==

    Orbital Energies [Eh]
    ---------------------

    Doubly Occupied:                                                      

       1A    -20.580254     2A    -20.538220     3A    -20.530307  
       4A    -15.584582     5A    -11.379398     6A    -11.366545  
       7A    -11.244110     8A    -11.232561     9A     -1.444289  
      10A     -1.388323    11A     -1.341806    12A     -1.219388  
      13A     -1.018159    14A     -1.011663    15A     -0.820044  
      16A     -0.797872    17A     -0.740040    18A     -0.707563  
      19A     -0.665961    20A     -0.662905    21A     -0.635939  
      22A     -0.624420    23A     -0.596759    24A     -0.571653  
      25A     -0.565765    26A     -0.550471    27A     -0.545898  
      28A     -0.532534    29A     -0.467684    30A     -0.454347  
      31A     -0.434113    32A     -0.422292  

    Virtual:                                                              

      33A      0.040245    34A      0.050465    35A      0.064824  
      36A      0.074155    37A      0.079861    38A      0.083009  
      39A      0.085281    40A      0.098367    41A      0.103730  
      42A      0.110633    43A      0.127694    44A      0.142095  
      45A      0.144107    46A      0.144220    47A      0.151030  
      48A      0.161557    49A      0.173634    50A      0.186842  
      51A      0.187771    52A      0.195707    53A      0.198951  
      54A      0.202673    55A      0.205467    56A      0.228610  
      57A      0.236474    58A      0.257821    59A      0.261143  
      60A      0.267119    61A      0.268736    62A      0.275396  
      63A      0.280597    64A      0.287777    65A      0.287814  
      66A      0.296209    67A      0.312908    68A      0.316345  
      69A      0.318030    70A      0.320604    71A      0.327464  
      72A      0.334116    73A      0.347386    74A      0.354516  
      75A      0.357931    76A      0.362981    77A      0.373802  
      78A      0.390812    79A      0.394223    80A      0.410766  
      81A      0.418271    82A      0.428214    83A      0.429160  
      84A      0.442727    85A      0.466730    86A      0.484032  
      87A      0.485445    88A      0.497272    89A      0.505333  
      90A      0.521833    91A      0.523385    92A      0.531721  
      93A      0.535344    94A      0.540463    95A      0.563282  
      96A      0.564562    97A      0.577966    98A      0.595280  
      99A      0.606521   100A      0.613261   101A      0.622355  
     102A      0.632475   103A      0.644160   104A      0.646578  
     105A      0.659235   106A      0.668170   107A      0.676333  
     108A      0.681461   109A      0.688159   110A      0.696759  
     111A      0.713885   112A      0.719943   113A      0.728515  
     114A      0.742015   115A      0.742207   116A      0.769012  
     117A      0.774531   118A      0.798055   119A      0.801622  
     120A      0.806978   121A      0.815926   122A      0.819867  
     123A      0.838884   124A      0.846830   125A      0.861803  
     126A      0.863089   127A      0.868229   128A      0.883675  
     129A      0.891123   130A      0.900528   131A      0.926840  
     132A      0.929378   133A      0.934991   134A      0.952289  
     135A      0.967435   136A      0.978738   137A      0.990053  
     138A      0.997609   139A      1.032233   140A      1.032885  
     141A      1.053057   142A      1.058189   143A      1.081773  
     144A      1.095428   145A      1.100884   146A      1.108185  
     147A      1.125201   148A      1.135501   149A      1.171061  
     150A      1.176911   151A      1.182316   152A      1.197321  
     153A      1.232721   154A      1.242383   155A      1.247912  
     156A      1.255127   157A      1.265760   158A      1.277538  
     159A      1.292368   160A      1.307202   161A      1.317252  
     162A      1.324871   163A      1.329270   164A      1.360914  
     165A      1.362694   166A      1.374380   167A      1.375247  
     168A      1.396071   169A      1.399116   170A      1.406069  
     171A      1.414970   172A      1.419862   173A      1.436572  
     174A      1.466116   175A      1.477004   176A      1.484109  
     177A      1.497952   178A      1.500867   179A      1.509860  
     180A      1.549067   181A      1.550549   182A      1.554997  
     183A      1.575273   184A      1.586315   185A      1.592473  
     186A      1.609578   187A      1.631253   188A      1.634468  
     189A      1.654707   190A      1.664134   191A      1.673366  
     192A      1.706392   193A      1.731149   194A      1.744997  
     195A      1.775202   196A      1.776127   197A      1.804343  
     198A      1.854427   199A      1.880799   200A      1.884478  
     201A      1.896879   202A      1.920558   203A      1.946131  
     204A      1.946675   205A      1.972878   206A      2.011877  
     207A      2.128345   208A      2.171024   209A      2.206871  
     210A      2.233633   211A      2.254967   212A      2.277777  
     213A      2.296826   214A      2.312710   215A      2.347602  
     216A      2.381324   217A      2.407243   218A      2.434931  
     219A      2.435477   220A      2.448829   221A      2.460528  
     222A      2.554090   223A      2.611897   224A      2.638447  
     225A      2.650203   226A      2.671574   227A      2.714642  
     228A      2.734567   229A      2.780206   230A      2.803672  
     231A      2.812140   232A      2.818800   233A      2.839517  
     234A      2.842800   235A      2.932242   236A      2.961618  
     237A      2.963995   238A      2.976622   239A      3.025528  
     240A      3.036495   241A      3.066347   242A      3.084250  
     243A      3.092559   244A      3.107841   245A      3.143566  
     246A      3.161499   247A      3.192458   248A      3.197602  
     249A      3.210427   250A      3.230916   251A      3.252591  
     252A      3.266925   253A      3.292164   254A      3.309571  
     255A      3.338438   256A      3.352085   257A      3.364243  
     258A      3.373114   259A      3.395005   260A      3.419573  
     261A      3.423896   262A      3.438828   263A      3.442300  
     264A      3.454035   265A      3.462177   266A      3.492430  
     267A      3.500194   268A      3.514752   269A      3.517297  
     270A      3.547753   271A      3.548637   272A      3.572196  
     273A      3.592261   274A      3.597339   275A      3.614045  
     276A      3.623440   277A      3.635248   278A      3.644318  
     279A      3.646509   280A      3.673571   281A      3.703483  
     282A      3.714987   283A      3.729718   284A      3.738596  
     285A      3.767157   286A      3.779188   287A      3.780848  
     288A      3.786489   289A      3.801310   290A      3.803282  
     291A      3.839435   292A      3.839701   293A      3.854119  
     294A      3.883645   295A      3.898475   296A      3.916177  
     297A      3.978108   298A      3.983675   299A      4.008849  
     300A      4.020657   301A      4.057780   302A      4.074950  
     303A      4.121113   304A      4.143912   305A      4.148804  
     306A      4.151404   307A      4.163214   308A      4.186244  
     309A      4.205084   310A      4.237959   311A      4.256030  
     312A      4.265411   313A      4.297857   314A      4.303609  
     315A      4.306604   316A      4.328243   317A      4.354070  
     318A      4.354581   319A      4.368439   320A      4.393078  
     321A      4.404735   322A      4.408178   323A      4.426818  
     324A      4.430111   325A      4.459715   326A      4.475377  
     327A      4.479338   328A      4.488756   329A      4.517955  
     330A      4.534261   331A      4.569393   332A      4.588501  
     333A      4.600661   334A      4.626452   335A      4.632490  
     336A      4.660356   337A      4.691050   338A      4.709474  
     339A      4.719979   340A      4.743611   341A      4.769514  
     342A      4.778520   343A      4.788971   344A      4.806863  
     345A      4.820615   346A      4.863867   347A      4.915117  
     348A      4.919642   349A      5.017727   350A      5.053032  
     351A      5.084866   352A      5.126650   353A      5.140005  
     354A      5.158903   355A      5.188823   356A      5.211415  
     357A      5.224340   358A      5.250486   359A      5.306584  
     360A      5.320925   361A      5.347614   362A      5.411649  
     363A      5.439670   364A      5.449497   365A      5.464427  
     366A      5.484998   367A      5.521634   368A      5.536396  
     369A      5.579280   370A      5.585138   371A      5.597184  
     372A      5.627488   373A      5.646805   374A      5.675706  
     375A      5.676173   376A      5.689080   377A      5.692554  
     378A      5.709581   379A      5.737848   380A      5.764537  
     381A      5.766572   382A      5.842850   383A      5.864647  
     384A      5.884132   385A      5.910229   386A      5.928294  
     387A      5.966163   388A      5.990723   389A      6.058523  
     390A      6.064522   391A      6.078774   392A      6.174411  
     393A      6.225543   394A      6.233015   395A      6.287865  
     396A      6.382570   397A      6.420128   398A      6.426692  
     399A      6.446992   400A      6.450044   401A      6.559883  
     402A      6.644331   403A      6.706784   404A      6.725529  
     405A      6.756039   406A      6.759385   407A      6.863265  
     408A      6.927717   409A      6.960602   410A      7.100717  
     411A      7.184271   412A      7.226411   413A      7.256640  
     414A      7.297580   415A      7.307064   416A      7.327575  
     417A      7.395949   418A      7.411291   419A      7.432418  
     420A      7.456028   421A      7.484935   422A      7.510683  
     423A      7.521720   424A      7.711204   425A      7.757754  
     426A      7.850796   427A      7.871556   428A      7.997872  
     429A      8.039554   430A      8.398420   431A     12.127567  
     432A     12.318810   433A     13.756414   434A     13.941201  
     435A     14.438079   436A     14.757600   437A     14.865883  
     438A     15.985399  

    Final Occupation by Irrep:
              A 
    DOCC [    32 ]

  @DF-RHF Final Energy:  -435.98523452016275

   => Energetics <=

    Nuclear Repulsion Energy =            377.4417958374359614
    One-Electron Energy =               -1345.5023322449571879
    Two-Electron Energy =                 532.0753018873584779
    Total Energy =                       -435.9852345201627486

Computation Completed


Properties will be evaluated at   0.000000,   0.000000,   0.000000 [a0]

Properties computed using the SCF density matrix

  Nuclear Dipole Moment: [e a0]
     X:    -2.1439      Y:     1.2662      Z:     0.0007

  Electronic Dipole Moment: [e a0]
     X:     1.4244      Y:    -0.5100      Z:    -0.0008

  Dipole Moment: [e a0]
     X:    -0.7195      Y:     0.7561      Z:    -0.0001     Total:     1.0438

  Dipole Moment: [D]
     X:    -1.8288      Y:     1.9219      Z:    -0.0002     Total:     2.6530


*** tstop() called on r282 at Fri Sep 10 17:59:13 2021
Module time:
	user time   =      40.79 seconds =       0.68 minutes
	system time =       1.05 seconds =       0.02 minutes
	total time  =         42 seconds =       0.70 minutes
Total time:
	user time   =      40.79 seconds =       0.68 minutes
	system time =       1.05 seconds =       0.02 minutes
	total time  =         42 seconds =       0.70 minutes

  //>>>>>>>>>>>>>>>>>>>>>>>>>>>>>>>>>>>//
  //            Monomer A HF           //
  //<<<<<<<<<<<<<<<<<<<<<<<<<<<<<<<<<<<//


*** tstart() called on r282
*** at Fri Sep 10 17:59:13 2021

   => Loading Basis Set <=

    Name: JUN-CC-PVTZ
    Role: ORBITAL
    Keyword: BASIS
    atoms 1, 5, 9-10    entry C          line   217 file /home/r08543048/miniconda3/share/psi4/basis/jun-cc-pvtz.gbs 
    atoms 2-3, 11       entry O          line   305 file /home/r08543048/miniconda3/share/psi4/basis/jun-cc-pvtz.gbs 
    atoms 4, 6-8, 13-17 entry H          line    36 file /home/r08543048/miniconda3/share/psi4/basis/jun-cc-pvtz.gbs 
    atoms 12            entry N          line   261 file /home/r08543048/miniconda3/share/psi4/basis/jun-cc-pvtz.gbs 


         ---------------------------------------------------------
                                   SCF
               by Justin Turney, Rob Parrish, Andy Simmonett
                          and Daniel G. A. Smith
                              RHF Reference
                        1 Threads,  20980 MiB Core
         ---------------------------------------------------------

  ==> Geometry <==

    Molecular point group: c1
    Full point group: C1

    Geometry (in Angstrom), charge = 0, multiplicity = 1:

       Center              X                  Y                   Z               Mass       
    ------------   -----------------  -----------------  -----------------  -----------------
         C            1.973388320641     0.078815320544    -0.000248189679    12.000000000000
         O            1.368176320641     1.144284320544     0.000164810321    15.994914619570
         O            1.390215320641    -1.110973679456    -0.000014189679    15.994914619570
         H            0.392957320641    -1.011534679456     0.000333810321     1.007825032230
         C            3.470138320641    -0.020807679456    -0.000021189679    12.000000000000
         H            3.906411320641     0.971416320544    -0.001253189679     1.007825032230
         H            3.794485320641    -0.575404679456     0.878362810321     1.007825032230
         H            3.794734320641    -0.577883679456    -0.876719189679     1.007825032230
      Gh(C)          -3.491867679359    -0.195564679456    -0.000022189679    12.000000000000
      Gh(C)          -1.994884679359    -0.041212679456    -0.000021189679    12.000000000000
      Gh(O)          -1.264311679359    -1.042443679456     0.000078810321    15.994914619570
      Gh(N)          -1.504079679359     1.208023320544    -0.000048189679    14.003074004430
      Gh(H)          -3.778555679359    -0.770383679456    -0.877934189679     1.007825032230
      Gh(H)          -3.778708679359    -0.768739679456     0.878926810321     1.007825032230
      Gh(H)          -4.018233679359     0.755695320544    -0.000925189679     1.007825032230
      Gh(H)          -0.492083679359     1.337430320544     0.000085810321     1.007825032230
      Gh(H)          -2.120248679359     1.998959320544    -0.000125189679     1.007825032230

  Running in c1 symmetry.

  Rotational constants: A =      0.18244  B =      0.02805  C =      0.02453 [cm^-1]
  Rotational constants: A =   5469.35130  B =    841.01238  C =    735.52007 [MHz]
  Nuclear repulsion =  121.146786612990553

  Charge       = 0
  Multiplicity = 1
  Electrons    = 32
  Nalpha       = 16
  Nbeta        = 16

  ==> Algorithm <==

  SCF Algorithm Type is DF.
  DIIS enabled.
  MOM disabled.
  Fractional occupation disabled.
  Guess Type is SAD.
  Energy threshold   = 1.00e-08
  Density threshold  = 1.00e-08
  Integral threshold = 0.00e+00

  ==> Primary Basis <==

  Basis Set: JUN-CC-PVTZ
    Blend: JUN-CC-PVTZ
    Number of shells: 158
    Number of basis function: 438
    Number of Cartesian functions: 495
    Spherical Harmonics?: true
    Max angular momentum: 3

   => Loading Basis Set <=

    Name: (JUN-CC-PVTZ AUX)
    Role: JKFIT
    Keyword: DF_BASIS_SCF
    atoms 1, 5, 9-10    entry C          line   152 file /home/r08543048/miniconda3/share/psi4/basis/jun-cc-pvtz-jkfit.gbs 
    atoms 2-3, 11       entry O          line   272 file /home/r08543048/miniconda3/share/psi4/basis/jun-cc-pvtz-jkfit.gbs 
    atoms 4, 6-8, 13-17 entry H          line    70 file /home/r08543048/miniconda3/share/psi4/basis/jun-cc-pvtz-jkfit.gbs 
    atoms 12            entry N          line   212 file /home/r08543048/miniconda3/share/psi4/basis/jun-cc-pvtz-jkfit.gbs 

  ==> Pre-Iterations <==

   -------------------------------------------------------
    Irrep   Nso     Nmo     Nalpha   Nbeta   Ndocc  Nsocc
   -------------------------------------------------------
     A        438     438       0       0       0       0
   -------------------------------------------------------
    Total     438     438      16      16      16       0
   -------------------------------------------------------

  ==> Integral Setup <==

  ==> DiskDFJK: Density-Fitted J/K Matrices <==

    J tasked:                  Yes
    K tasked:                  Yes
    wK tasked:                  No
    OpenMP threads:              1
    Integrals threads:           1
    Memory [MiB]:            15735
    Algorithm:                Core
    Integral Cache:           LOAD
    Schwarz Cutoff:          1E-12
    Fitting Condition:       1E-10

   => Auxiliary Basis Set <=

  Basis Set: (JUN-CC-PVTZ AUX)
    Blend: JUN-CC-PVTZ-JKFIT
    Number of shells: 322
    Number of basis function: 1030
    Number of Cartesian functions: 1243
    Spherical Harmonics?: true
    Max angular momentum: 4

  Minimum eigenvalue in the overlap matrix is 4.4676414938E-05.
  Using Symmetric Orthogonalization.

  SCF Guess: Superposition of Atomic Densities via on-the-fly atomic UHF.

  ==> Iterations <==

                           Total Energy        Delta E     RMS |[F,P]|

   @DF-RHF iter SAD:  -226.99929909201811   -2.26999e+02   0.00000e+00 
   @DF-RHF iter   1:  -227.73976691334903   -7.40468e-01   1.37201e-03 DIIS
   @DF-RHF iter   2:  -227.85416654802535   -1.14400e-01   8.52115e-04 DIIS
   @DF-RHF iter   3:  -227.89814919946141   -4.39827e-02   1.41648e-04 DIIS
   @DF-RHF iter   4:  -227.90044902442585   -2.29982e-03   6.38823e-05 DIIS
   @DF-RHF iter   5:  -227.90095915021857   -5.10126e-04   1.53593e-05 DIIS
   @DF-RHF iter   6:  -227.90100102977226   -4.18796e-05   7.22415e-06 DIIS
   @DF-RHF iter   7:  -227.90101135620392   -1.03264e-05   2.44886e-06 DIIS
   @DF-RHF iter   8:  -227.90101314271007   -1.78651e-06   6.80745e-07 DIIS
   @DF-RHF iter   9:  -227.90101330188196   -1.59172e-07   1.45156e-07 DIIS
   @DF-RHF iter  10:  -227.90101330798376   -6.10180e-09   3.42998e-08 DIIS
   @DF-RHF iter  11:  -227.90101330822495   -2.41187e-10   7.53974e-09 DIIS
  Energy and wave function converged.


  ==> Post-Iterations <==

    Orbital Energies [Eh]
    ---------------------

    Doubly Occupied:                                                      

       1A    -20.625202     2A    -20.545317     3A    -11.389929  
       4A    -11.243928     5A     -1.468831     6A     -1.353848  
       7A     -1.027507     8A     -0.833748     9A     -0.703257  
      10A     -0.681254    11A     -0.655198    12A     -0.579730  
      13A     -0.570948    14A     -0.564309    15A     -0.477453  
      16A     -0.451990  

    Virtual:                                                              

      17A      0.031269    18A      0.043990    19A      0.056879  
      20A      0.065923    21A      0.066221    22A      0.079077  
      23A      0.080376    24A      0.093110    25A      0.100948  
      26A      0.105229    27A      0.126284    28A      0.134782  
      29A      0.139114    30A      0.139402    31A      0.146403  
      32A      0.148467    33A      0.165326    34A      0.168469  
      35A      0.173695    36A      0.189557    37A      0.192519  
      38A      0.193602    39A      0.199861    40A      0.207970  
      41A      0.208504    42A      0.220551    43A      0.240990  
      44A      0.255946    45A      0.257490    46A      0.260625  
      47A      0.281630    48A      0.282944    49A      0.284992  
      50A      0.293518    51A      0.299944    52A      0.326725  
      53A      0.327472    54A      0.335441    55A      0.344422  
      56A      0.349195    57A      0.355576    58A      0.367358  
      59A      0.370001    60A      0.370157    61A      0.377875  
      62A      0.386108    63A      0.394039    64A      0.402736  
      65A      0.411623    66A      0.425036    67A      0.425999  
      68A      0.433101    69A      0.449512    70A      0.458510  
      71A      0.473621    72A      0.491877    73A      0.493430  
      74A      0.501471    75A      0.513558    76A      0.514047  
      77A      0.516784    78A      0.530602    79A      0.560244  
      80A      0.572878    81A      0.576319    82A      0.593679  
      83A      0.615602    84A      0.621087    85A      0.621817  
      86A      0.628806    87A      0.638800    88A      0.647466  
      89A      0.665477    90A      0.666854    91A      0.669939  
      92A      0.693752    93A      0.710356    94A      0.710427  
      95A      0.727371    96A      0.729657    97A      0.745114  
      98A      0.772258    99A      0.783929   100A      0.793590  
     101A      0.801660   102A      0.803357   103A      0.825933  
     104A      0.828223   105A      0.834724   106A      0.841195  
     107A      0.844598   108A      0.849299   109A      0.861310  
     110A      0.886286   111A      0.898596   112A      0.910697  
     113A      0.927810   114A      0.930351   115A      0.944249  
     116A      0.978691   117A      0.979989   118A      0.987551  
     119A      1.005973   120A      1.009119   121A      1.016450  
     122A      1.024392   123A      1.049237   124A      1.058329  
     125A      1.067929   126A      1.079070   127A      1.102810  
     128A      1.105396   129A      1.124029   130A      1.145743  
     131A      1.169538   132A      1.183588   133A      1.195692  
     134A      1.210588   135A      1.216599   136A      1.231482  
     137A      1.243125   138A      1.259240   139A      1.267723  
     140A      1.272849   141A      1.292380   142A      1.307332  
     143A      1.309539   144A      1.323768   145A      1.339512  
     146A      1.350203   147A      1.367717   148A      1.378757  
     149A      1.401820   150A      1.412915   151A      1.413152  
     152A      1.432492   153A      1.444895   154A      1.474648  
     155A      1.476179   156A      1.487034   157A      1.489371  
     158A      1.504684   159A      1.532508   160A      1.534197  
     161A      1.542316   162A      1.551327   163A      1.571732  
     164A      1.581553   165A      1.596471   166A      1.601677  
     167A      1.613601   168A      1.640722   169A      1.659727  
     170A      1.664201   171A      1.692247   172A      1.701802  
     173A      1.725721   174A      1.727940   175A      1.769361  
     176A      1.778646   177A      1.782220   178A      1.801533  
     179A      1.853579   180A      1.857923   181A      1.878020  
     182A      1.890465   183A      1.902520   184A      1.933308  
     185A      1.960193   186A      1.966286   187A      1.992317  
     188A      2.041829   189A      2.052711   190A      2.070649  
     191A      2.115324   192A      2.151972   193A      2.202209  
     194A      2.245564   195A      2.249794   196A      2.291592  
     197A      2.319695   198A      2.356094   199A      2.365761  
     200A      2.374434   201A      2.408088   202A      2.416529  
     203A      2.429816   204A      2.466551   205A      2.466975  
     206A      2.496751   207A      2.562064   208A      2.564721  
     209A      2.627134   210A      2.643647   211A      2.655536  
     212A      2.700224   213A      2.745016   214A      2.753886  
     215A      2.781867   216A      2.821967   217A      2.824705  
     218A      2.835117   219A      2.847117   220A      2.860485  
     221A      2.937584   222A      2.953338   223A      2.958115  
     224A      2.997807   225A      3.004602   226A      3.021423  
     227A      3.097530   228A      3.105207   229A      3.153724  
     230A      3.200620   231A      3.216832   232A      3.264469  
     233A      3.290103   234A      3.313321   235A      3.343806  
     236A      3.362996   237A      3.399213   238A      3.423184  
     239A      3.426288   240A      3.439786   241A      3.484893  
     242A      3.500379   243A      3.542527   244A      3.550331  
     245A      3.584391   246A      3.594293   247A      3.606288  
     248A      3.614267   249A      3.623098   250A      3.636464  
     251A      3.673167   252A      3.681471   253A      3.711796  
     254A      3.712008   255A      3.727762   256A      3.749551  
     257A      3.771829   258A      3.772482   259A      3.791631  
     260A      3.818496   261A      3.838526   262A      3.847768  
     263A      3.862431   264A      3.875457   265A      3.876135  
     266A      3.888097   267A      3.927685   268A      3.984594  
     269A      4.005263   270A      4.009573   271A      4.040648  
     272A      4.085084   273A      4.113461   274A      4.130815  
     275A      4.141970   276A      4.154995   277A      4.190908  
     278A      4.201617   279A      4.242236   280A      4.249092  
     281A      4.285965   282A      4.291011   283A      4.298373  
     284A      4.316898   285A      4.330049   286A      4.331297  
     287A      4.337421   288A      4.343910   289A      4.389683  
     290A      4.408525   291A      4.421307   292A      4.457301  
     293A      4.473056   294A      4.504235   295A      4.517414  
     296A      4.520322   297A      4.567433   298A      4.574395  
     299A      4.607577   300A      4.607658   301A      4.634148  
     302A      4.639018   303A      4.651469   304A      4.691026  
     305A      4.714399   306A      4.735264   307A      4.749010  
     308A      4.755194   309A      4.760063   310A      4.765076  
     311A      4.773957   312A      4.777905   313A      4.779883  
     314A      4.793550   315A      4.805281   316A      4.821468  
     317A      4.855623   318A      4.862222   319A      4.881600  
     320A      4.908206   321A      4.923155   322A      4.928484  
     323A      4.940987   324A      4.998424   325A      5.014264  
     326A      5.043858   327A      5.063297   328A      5.081641  
     329A      5.098329   330A      5.117799   331A      5.120401  
     332A      5.148949   333A      5.151412   334A      5.183729  
     335A      5.191182   336A      5.210013   337A      5.298723  
     338A      5.344128   339A      5.409126   340A      5.436353  
     341A      5.437942   342A      5.509977   343A      5.554039  
     344A      5.570364   345A      5.579450   346A      5.648341  
     347A      5.660674   348A      5.671746   349A      5.678848  
     350A      5.686545   351A      5.734714   352A      5.808307  
     353A      5.864867   354A      5.874368   355A      5.892168  
     356A      5.929925   357A      5.942962   358A      5.978827  
     359A      6.020467   360A      6.041105   361A      6.069199  
     362A      6.152956   363A      6.216462   364A      6.216793  
     365A      6.259491   366A      6.266580   367A      6.290950  
     368A      6.350000   369A      6.409376   370A      6.416920  
     371A      6.436318   372A      6.439387   373A      6.517813  
     374A      6.531865   375A      6.550714   376A      6.567078  
     377A      6.677747   378A      6.723638   379A      6.744953  
     380A      6.762512   381A      6.787351   382A      6.857744  
     383A      6.882679   384A      6.906494   385A      7.011451  
     386A      7.069083   387A      7.139463   388A      7.179063  
     389A      7.265765   390A      7.285572   391A      7.331415  
     392A      7.332062   393A      7.378316   394A      7.393292  
     395A      7.428793   396A      7.438574   397A      7.463514  
     398A      7.486273   399A      7.537314   400A      7.542414  
     401A      7.654322   402A      7.776477   403A      7.777060  
     404A      7.791089   405A      7.842816   406A      7.845129  
     407A      7.884208   408A      7.911090   409A      7.988095  
     410A      8.066346   411A      8.188313   412A      8.311906  
     413A      8.469057   414A      8.864821   415A      9.081991  
     416A      9.103062   417A      9.126644   418A      9.480073  
     419A      9.784541   420A      9.863182   421A      9.878928  
     422A      9.969399   423A     10.316960   424A     10.621918  
     425A     10.932971   426A     11.510304   427A     11.537925  
     428A     11.665713   429A     11.944489   430A     12.220181  
     431A     13.687955   432A     13.874419   433A     14.430391  
     434A     14.757895   435A     42.841837   436A     46.320712  
     437A     55.987864   438A     60.758023  

    Final Occupation by Irrep:
              A 
    DOCC [    16 ]

  @DF-RHF Final Energy:  -227.90101330822495

   => Energetics <=

    Nuclear Repulsion Energy =            121.1467866129905531
    One-Electron Energy =                -551.7507029924754534
    Two-Electron Energy =                 202.7029030712599251
    Total Energy =                       -227.9010133082249467

Computation Completed


Properties will be evaluated at   0.000000,   0.000000,   0.000000 [a0]

Properties computed using the SCF density matrix

  Nuclear Dipole Moment: [e a0]
     X:   125.8877      Y:    -1.0939      Z:     0.0006

  Electronic Dipole Moment: [e a0]
     X:  -125.5361      Y:     0.2769      Z:    -0.0006

  Dipole Moment: [e a0]
     X:     0.3516      Y:    -0.8170      Z:    -0.0000     Total:     0.8894

  Dipole Moment: [D]
     X:     0.8936      Y:    -2.0765      Z:    -0.0000     Total:     2.2607


*** tstop() called on r282 at Fri Sep 10 17:59:33 2021
Module time:
	user time   =      19.16 seconds =       0.32 minutes
	system time =       0.43 seconds =       0.01 minutes
	total time  =         20 seconds =       0.33 minutes
Total time:
	user time   =      59.95 seconds =       1.00 minutes
	system time =       1.48 seconds =       0.02 minutes
	total time  =         62 seconds =       1.03 minutes

  //>>>>>>>>>>>>>>>>>>>>>>>>>>>>>>>>>>>//
  //            Monomer B HF           //
  //<<<<<<<<<<<<<<<<<<<<<<<<<<<<<<<<<<<//


*** tstart() called on r282
*** at Fri Sep 10 17:59:33 2021

   => Loading Basis Set <=

    Name: JUN-CC-PVTZ
    Role: ORBITAL
    Keyword: BASIS
    atoms 1, 5, 9-10    entry C          line   217 file /home/r08543048/miniconda3/share/psi4/basis/jun-cc-pvtz.gbs 
    atoms 2-3, 11       entry O          line   305 file /home/r08543048/miniconda3/share/psi4/basis/jun-cc-pvtz.gbs 
    atoms 4, 6-8, 13-17 entry H          line    36 file /home/r08543048/miniconda3/share/psi4/basis/jun-cc-pvtz.gbs 
    atoms 12            entry N          line   261 file /home/r08543048/miniconda3/share/psi4/basis/jun-cc-pvtz.gbs 


         ---------------------------------------------------------
                                   SCF
               by Justin Turney, Rob Parrish, Andy Simmonett
                          and Daniel G. A. Smith
                              RHF Reference
                        1 Threads,  20980 MiB Core
         ---------------------------------------------------------

  ==> Geometry <==

    Molecular point group: c1
    Full point group: C1

    Geometry (in Angstrom), charge = 0, multiplicity = 1:

       Center              X                  Y                   Z               Mass       
    ------------   -----------------  -----------------  -----------------  -----------------
      Gh(C)           1.973388320641     0.078815320544    -0.000248189679    12.000000000000
      Gh(O)           1.368176320641     1.144284320544     0.000164810321    15.994914619570
      Gh(O)           1.390215320641    -1.110973679456    -0.000014189679    15.994914619570
      Gh(H)           0.392957320641    -1.011534679456     0.000333810321     1.007825032230
      Gh(C)           3.470138320641    -0.020807679456    -0.000021189679    12.000000000000
      Gh(H)           3.906411320641     0.971416320544    -0.001253189679     1.007825032230
      Gh(H)           3.794485320641    -0.575404679456     0.878362810321     1.007825032230
      Gh(H)           3.794734320641    -0.577883679456    -0.876719189679     1.007825032230
         C           -3.491867679359    -0.195564679456    -0.000022189679    12.000000000000
         C           -1.994884679359    -0.041212679456    -0.000021189679    12.000000000000
         O           -1.264311679359    -1.042443679456     0.000078810321    15.994914619570
         N           -1.504079679359     1.208023320544    -0.000048189679    14.003074004430
         H           -3.778555679359    -0.770383679456    -0.877934189679     1.007825032230
         H           -3.778708679359    -0.768739679456     0.878926810321     1.007825032230
         H           -4.018233679359     0.755695320544    -0.000925189679     1.007825032230
         H           -0.492083679359     1.337430320544     0.000085810321     1.007825032230
         H           -2.120248679359     1.998959320544    -0.000125189679     1.007825032230

  Running in c1 symmetry.

  Rotational constants: A =      0.18244  B =      0.02805  C =      0.02453 [cm^-1]
  Rotational constants: A =   5469.35130  B =    841.01238  C =    735.52007 [MHz]
  Nuclear repulsion =  121.870791658940576

  Charge       = 0
  Multiplicity = 1
  Electrons    = 32
  Nalpha       = 16
  Nbeta        = 16

  ==> Algorithm <==

  SCF Algorithm Type is DF.
  DIIS enabled.
  MOM disabled.
  Fractional occupation disabled.
  Guess Type is SAD.
  Energy threshold   = 1.00e-08
  Density threshold  = 1.00e-08
  Integral threshold = 0.00e+00

  ==> Primary Basis <==

  Basis Set: JUN-CC-PVTZ
    Blend: JUN-CC-PVTZ
    Number of shells: 158
    Number of basis function: 438
    Number of Cartesian functions: 495
    Spherical Harmonics?: true
    Max angular momentum: 3

   => Loading Basis Set <=

    Name: (JUN-CC-PVTZ AUX)
    Role: JKFIT
    Keyword: DF_BASIS_SCF
    atoms 1, 5, 9-10    entry C          line   152 file /home/r08543048/miniconda3/share/psi4/basis/jun-cc-pvtz-jkfit.gbs 
    atoms 2-3, 11       entry O          line   272 file /home/r08543048/miniconda3/share/psi4/basis/jun-cc-pvtz-jkfit.gbs 
    atoms 4, 6-8, 13-17 entry H          line    70 file /home/r08543048/miniconda3/share/psi4/basis/jun-cc-pvtz-jkfit.gbs 
    atoms 12            entry N          line   212 file /home/r08543048/miniconda3/share/psi4/basis/jun-cc-pvtz-jkfit.gbs 

  ==> Pre-Iterations <==

   -------------------------------------------------------
    Irrep   Nso     Nmo     Nalpha   Nbeta   Ndocc  Nsocc
   -------------------------------------------------------
     A        438     438       0       0       0       0
   -------------------------------------------------------
    Total     438     438      16      16      16       0
   -------------------------------------------------------

  ==> Integral Setup <==

  ==> DiskDFJK: Density-Fitted J/K Matrices <==

    J tasked:                  Yes
    K tasked:                  Yes
    wK tasked:                  No
    OpenMP threads:              1
    Integrals threads:           1
    Memory [MiB]:            15735
    Algorithm:                Core
    Integral Cache:           LOAD
    Schwarz Cutoff:          1E-12
    Fitting Condition:       1E-10

   => Auxiliary Basis Set <=

  Basis Set: (JUN-CC-PVTZ AUX)
    Blend: JUN-CC-PVTZ-JKFIT
    Number of shells: 322
    Number of basis function: 1030
    Number of Cartesian functions: 1243
    Spherical Harmonics?: true
    Max angular momentum: 4

  Minimum eigenvalue in the overlap matrix is 4.4676414938E-05.
  Using Symmetric Orthogonalization.

  SCF Guess: Superposition of Atomic Densities via on-the-fly atomic UHF.

  ==> Iterations <==

                           Total Energy        Delta E     RMS |[F,P]|

   @DF-RHF iter SAD:  -207.24957654600973   -2.07250e+02   0.00000e+00 
   @DF-RHF iter   1:  -207.88413415397775   -6.34558e-01   1.38629e-03 DIIS
   @DF-RHF iter   2:  -208.01220763422060   -1.28073e-01   8.42838e-04 DIIS
   @DF-RHF iter   3:  -208.05714562930950   -4.49380e-02   1.56970e-04 DIIS
   @DF-RHF iter   4:  -208.05969018253577   -2.54455e-03   6.22847e-05 DIIS
   @DF-RHF iter   5:  -208.06019746766671   -5.07285e-04   1.15311e-05 DIIS
   @DF-RHF iter   6:  -208.06022788055563   -3.04129e-05   5.36330e-06 DIIS
   @DF-RHF iter   7:  -208.06023327877045   -5.39821e-06   2.02703e-06 DIIS
   @DF-RHF iter   8:  -208.06023444292956   -1.16416e-06   6.90575e-07 DIIS
   @DF-RHF iter   9:  -208.06023460102904   -1.58099e-07   1.84490e-07 DIIS
   @DF-RHF iter  10:  -208.06023460974399   -8.71495e-09   6.12495e-08 DIIS
   @DF-RHF iter  11:  -208.06023461060079   -8.56801e-10   1.56441e-08 DIIS
   @DF-RHF iter  12:  -208.06023461065479   -5.40012e-11   3.20403e-09 DIIS
  Energy and wave function converged.


  ==> Post-Iterations <==

    Orbital Energies [Eh]
    ---------------------

    Doubly Occupied:                                                      

       1A    -20.509857     2A    -15.594260     3A    -11.352577  
       4A    -11.238005     5A     -1.365777     6A     -1.219031  
       7A     -1.007247     8A     -0.804822     9A     -0.733143  
      10A     -0.662465    11A     -0.615896    12A     -0.576811  
      13A     -0.565351    14A     -0.524110    15A     -0.420707  
      16A     -0.412811  

    Virtual:                                                              

      17A      0.035561    18A      0.040298    19A      0.056506  
      20A      0.071028    21A      0.074321    22A      0.075924  
      23A      0.080064    24A      0.093888    25A      0.101789  
      26A      0.108857    27A      0.125368    28A      0.133339  
      29A      0.136313    30A      0.140493    31A      0.148919  
      32A      0.151269    33A      0.167382    34A      0.171653  
      35A      0.176832    36A      0.186554    37A      0.195029  
      38A      0.199000    39A      0.205767    40A      0.217532  
      41A      0.227425    42A      0.228426    43A      0.236686  
      44A      0.262191    45A      0.269687    46A      0.271929  
      47A      0.277185    48A      0.283362    49A      0.286159  
      50A      0.290998    51A      0.302452    52A      0.318041  
      53A      0.319705    54A      0.326998    55A      0.340156  
      56A      0.346218    57A      0.360516    58A      0.363974  
      59A      0.376390    60A      0.377288    61A      0.381545  
      62A      0.382941    63A      0.394560    64A      0.410874  
      65A      0.424809    66A      0.432000    67A      0.435492  
      68A      0.452572    69A      0.465852    70A      0.473781  
      71A      0.485085    72A      0.488514    73A      0.498859  
      74A      0.505180    75A      0.508463    76A      0.510602  
      77A      0.526905    78A      0.535514    79A      0.551564  
      80A      0.552666    81A      0.577663    82A      0.587650  
      83A      0.589480    84A      0.598819    85A      0.615087  
      86A      0.619970    87A      0.628126    88A      0.634569  
      89A      0.659444    90A      0.661091    91A      0.680193  
      92A      0.695625    93A      0.715612    94A      0.726059  
      95A      0.733133    96A      0.748631    97A      0.766319  
      98A      0.766611    99A      0.779139   100A      0.796071  
     101A      0.802340   102A      0.820466   103A      0.825377  
     104A      0.837003   105A      0.846143   106A      0.868916  
     107A      0.871934   108A      0.883894   109A      0.896145  
     110A      0.912248   111A      0.926608   112A      0.943596  
     113A      0.945005   114A      0.960889   115A      0.974035  
     116A      0.977679   117A      1.005829   118A      1.009710  
     119A      1.016197   120A      1.034621   121A      1.041802  
     122A      1.053690   123A      1.059031   124A      1.068781  
     125A      1.071031   126A      1.074971   127A      1.091103  
     128A      1.097690   129A      1.120399   130A      1.135015  
     131A      1.143836   132A      1.146666   133A      1.173464  
     134A      1.179210   135A      1.203962   136A      1.216799  
     137A      1.223882   138A      1.224297   139A      1.244639  
     140A      1.248833   141A      1.271490   142A      1.290354  
     143A      1.304921   144A      1.305496   145A      1.326818  
     146A      1.339824   147A      1.340277   148A      1.362943  
     149A      1.380283   150A      1.395871   151A      1.396997  
     152A      1.402645   153A      1.413280   154A      1.429644  
     155A      1.447164   156A      1.447291   157A      1.472196  
     158A      1.488209   159A      1.507055   160A      1.526123  
     161A      1.533712   162A      1.556005   163A      1.559473  
     164A      1.571758   165A      1.592346   166A      1.605521  
     167A      1.622426   168A      1.650500   169A      1.654338  
     170A      1.664992   171A      1.685857   172A      1.720526  
     173A      1.739760   174A      1.745175   175A      1.748766  
     176A      1.791031   177A      1.792480   178A      1.849369  
     179A      1.860412   180A      1.881624   181A      1.897388  
     182A      1.903154   183A      1.909828   184A      1.926562  
     185A      1.960575   186A      1.974347   187A      1.977538  
     188A      1.990417   189A      2.037165   190A      2.069906  
     191A      2.125739   192A      2.143688   193A      2.168492  
     194A      2.207752   195A      2.240610   196A      2.306874  
     197A      2.331605   198A      2.342628   199A      2.390016  
     200A      2.400153   201A      2.446986   202A      2.468878  
     203A      2.482465   204A      2.505301   205A      2.588631  
     206A      2.607985   207A      2.625493   208A      2.633162  
     209A      2.717330   210A      2.745861   211A      2.775684  
     212A      2.784927   213A      2.805304   214A      2.829505  
     215A      2.831303   216A      2.889536   217A      2.907245  
     218A      2.950925   219A      2.979875   220A      2.983467  
     221A      2.992044   222A      3.001279   223A      3.026189  
     224A      3.048571   225A      3.050769   226A      3.084845  
     227A      3.092168   228A      3.146043   229A      3.164887  
     230A      3.209151   231A      3.244752   232A      3.264611  
     233A      3.280390   234A      3.324359   235A      3.360559  
     236A      3.391406   237A      3.415212   238A      3.417539  
     239A      3.440228   240A      3.456282   241A      3.467232  
     242A      3.479372   243A      3.506261   244A      3.530028  
     245A      3.543294   246A      3.548343   247A      3.563500  
     248A      3.578829   249A      3.596358   250A      3.610811  
     251A      3.624115   252A      3.636611   253A      3.647069  
     254A      3.654216   255A      3.665450   256A      3.689767  
     257A      3.696875   258A      3.740727   259A      3.775043  
     260A      3.784859   261A      3.788806   262A      3.802711  
     263A      3.823381   264A      3.870286   265A      3.875308  
     266A      3.879969   267A      3.910521   268A      3.948161  
     269A      3.970920   270A      3.982791   271A      3.993671  
     272A      3.997978   273A      4.014959   274A      4.041203  
     275A      4.077029   276A      4.123288   277A      4.130311  
     278A      4.141037   279A      4.155682   280A      4.164929  
     281A      4.173673   282A      4.242181   283A      4.246976  
     284A      4.278458   285A      4.279822   286A      4.304693  
     287A      4.315486   288A      4.344508   289A      4.347800  
     290A      4.372087   291A      4.372289   292A      4.392214  
     293A      4.404833   294A      4.407460   295A      4.444136  
     296A      4.449306   297A      4.459735   298A      4.491981  
     299A      4.507299   300A      4.513498   301A      4.515938  
     302A      4.546522   303A      4.561565   304A      4.584911  
     305A      4.606059   306A      4.631876   307A      4.655028  
     308A      4.662946   309A      4.693127   310A      4.732476  
     311A      4.746646   312A      4.758552   313A      4.765606  
     314A      4.772753   315A      4.781731   316A      4.797975  
     317A      4.809201   318A      4.824888   319A      4.856786  
     320A      4.858573   321A      4.870366   322A      4.910289  
     323A      4.920739   324A      4.926684   325A      4.943191  
     326A      4.975897   327A      5.006515   328A      5.019342  
     329A      5.066535   330A      5.123800   331A      5.125291  
     332A      5.134803   333A      5.139084   334A      5.172432  
     335A      5.209740   336A      5.217562   337A      5.229718  
     338A      5.247004   339A      5.266453   340A      5.329916  
     341A      5.349192   342A      5.408968   343A      5.436349  
     344A      5.442528   345A      5.490221   346A      5.505125  
     347A      5.555761   348A      5.603657   349A      5.628277  
     350A      5.630653   351A      5.679443   352A      5.683597  
     353A      5.700772   354A      5.702752   355A      5.744240  
     356A      5.786423   357A      5.788191   358A      5.894316  
     359A      5.949303   360A      5.971577   361A      5.988489  
     362A      5.994847   363A      6.074643   364A      6.074971  
     365A      6.082855   366A      6.154447   367A      6.170767  
     368A      6.195357   369A      6.250460   370A      6.269567  
     371A      6.281759   372A      6.338959   373A      6.426039  
     374A      6.439110   375A      6.445006   376A      6.493017  
     377A      6.515731   378A      6.534565   379A      6.661909  
     380A      6.699408   381A      6.747778   382A      6.770623  
     383A      6.807517   384A      6.823006   385A      6.888660  
     386A      7.026085   387A      7.158381   388A      7.196050  
     389A      7.233424   390A      7.255598   391A      7.268240  
     392A      7.374324   393A      7.465791   394A      7.477338  
     395A      7.531664   396A      7.531774   397A      7.555279  
     398A      7.592026   399A      7.731226   400A      7.760931  
     401A      7.798380   402A      7.841861   403A      7.875554  
     404A      7.927171   405A      8.044718   406A      8.045324  
     407A      8.140232   408A      8.351250   409A      8.688956  
     410A      8.894072   411A      9.131621   412A      9.463468  
     413A      9.718087   414A      9.771374   415A      9.866664  
     416A      9.899239   417A      9.902296   418A      9.954588  
     419A      9.978171   420A     10.130335   421A     10.415548  
     422A     10.538032   423A     11.022241   424A     11.372482  
     425A     11.544944   426A     11.612641   427A     11.971579  
     428A     12.251036   429A     13.127746   430A     13.768133  
     431A     13.929993   432A     14.038533   433A     14.860644  
     434A     15.970502   435A     43.131093   436A     46.121224  
     437A     60.904168   438A     61.710386  

    Final Occupation by Irrep:
              A 
    DOCC [    16 ]

  @DF-RHF Final Energy:  -208.06023461065479

   => Energetics <=

    Nuclear Repulsion Energy =            121.8707916589405755
    One-Electron Energy =                -524.6563152152127714
    Two-Electron Energy =                 194.7252889456174216
    Total Energy =                       -208.0602346106547884

Computation Completed


Properties will be evaluated at   0.000000,   0.000000,   0.000000 [a0]

Properties computed using the SCF density matrix

  Nuclear Dipole Moment: [e a0]
     X:  -128.0316      Y:     2.3601      Z:     0.0001

  Electronic Dipole Moment: [e a0]
     X:   127.2270      Y:    -0.8032      Z:    -0.0001

  Dipole Moment: [e a0]
     X:    -0.8045      Y:     1.5569      Z:    -0.0000     Total:     1.7525

  Dipole Moment: [D]
     X:    -2.0449      Y:     3.9572      Z:    -0.0001     Total:     4.4543


*** tstop() called on r282 at Fri Sep 10 17:59:54 2021
Module time:
	user time   =      20.53 seconds =       0.34 minutes
	system time =       0.50 seconds =       0.01 minutes
	total time  =         21 seconds =       0.35 minutes
Total time:
	user time   =      80.48 seconds =       1.34 minutes
	system time =       1.98 seconds =       0.03 minutes
	total time  =         83 seconds =       1.38 minutes
  Constructing Basis Sets for SAPT...

   => Loading Basis Set <=

    Name: (JUN-CC-PVTZ AUX)
    Role: RIFIT
    Keyword: DF_BASIS_SAPT
    atoms 1, 5, 9-10    entry C          line   132 file /home/r08543048/miniconda3/share/psi4/basis/jun-cc-pvtz-ri.gbs 
    atoms 2-3, 11       entry O          line   244 file /home/r08543048/miniconda3/share/psi4/basis/jun-cc-pvtz-ri.gbs 
    atoms 4, 6-8, 13-17 entry H          line    30 file /home/r08543048/miniconda3/share/psi4/basis/jun-cc-pvtz-ri.gbs 
    atoms 12            entry N          line   188 file /home/r08543048/miniconda3/share/psi4/basis/jun-cc-pvtz-ri.gbs 


  //>>>>>>>>>>>>>>>>>>>>>>>>>>>>>>>>>>>//
  //               SAPT0               //
  //<<<<<<<<<<<<<<<<<<<<<<<<<<<<<<<<<<<//


*** tstart() called on r282
*** at Fri Sep 10 17:59:54 2021

        SAPT0  
    Ed Hohenstein
     6 June 2009

      Orbital Information
  --------------------------
    NSO        =       438
    NMO        =       438
    NRI        =      1046
    NOCC A     =        16
    NOCC B     =        16
    FOCC A     =         0
    FOCC B     =         0
    NVIR A     =       422
    NVIR B     =       422

    Elst10,r            =    -0.049217743896 [Eh]
    Exch10              =     0.047471737045 [Eh]
    Exch10 (S^2)        =     0.046720972162 [Eh]

    Iter     Energy [mEh]          dE [mEh]         Residual      Time [s]
       1      -8.87634487       8.876344868      19.505248805             1
       2     -10.20460145       1.328256584      10.582577210             1
       3     -10.94949034       0.744888889       2.596996901             2
       4     -10.86989801      -0.079592337       1.031758562             3
       5     -10.85784394      -0.012054064       0.298132347             3
       6     -10.86683781       0.008993871       0.103372035             4
       7     -10.86735902       0.000521207       0.028300119             5
       8     -10.86674404      -0.000614977       0.009342125             5
       9     -10.86665707      -0.000086970       0.002829938             6
      10     -10.86670643       0.000049359       0.000703113             7
      11     -10.86670979       0.000003363       0.000134853             7
      12     -10.86670713      -0.000002665       0.000031930             8
      13     -10.86670726       0.000000127       0.000009485             8
      14     -10.86670740       0.000000149       0.000001820             9
      15     -10.86670738      -0.000000020       0.000000402            10

    CHF Iterations converged


    Iter     Energy [mEh]          dE [mEh]         Residual      Time [s]
       1     -12.22654193      12.226541930      25.135862010             0
       2     -14.46028255       2.233740620      14.250177442             2
       3     -15.67585929       1.215576745       3.457764227             2
       4     -15.56588579      -0.109973509       1.375777670             3
       5     -15.54297587      -0.022909912       0.395458375             4
       6     -15.55626379       0.013287917       0.147013816             4
       7     -15.55819583       0.001932040       0.035930938             5
       8     -15.55728750      -0.000908330       0.011295228             5
       9     -15.55716575      -0.000121751       0.003088046             6
      10     -15.55722152       0.000055772       0.000711873             7
      11     -15.55722727       0.000005747       0.000157866             7
      12     -15.55722507      -0.000002196       0.000044922             8
      13     -15.55722453      -0.000000542       0.000011856             9
      14     -15.55722478       0.000000246       0.000002326             9
      15     -15.55722475      -0.000000026       0.000000504            10

    CHF Iterations converged

    Ind20,r (A<-B)      =    -0.010866707385 [Eh]
    Ind20,r (B<-A)      =    -0.015557224751 [Eh]
    Ind20,r             =    -0.026423932136 [Eh]
    Exch-Ind20,r (A<-B) =     0.006143658819 [Eh]
    Exch-Ind20,r (B<-A) =     0.007601687186 [Eh]
    Exch-Ind20,r        =     0.013745346005 [Eh]
    Disp20              =    -0.015433422239 [Eh]
    Disp20 (SS)         =    -0.007716711119 [Eh]
    Disp20 (OS)         =    -0.007716711119 [Eh]
    Exch-Disp20         =     0.003090359466 [Eh]
    Exch-Disp20 (SS)    =     0.001942688232 [Eh]
    Exch-Disp20 (OS)    =     0.001147671234 [Eh]

    SAPT Results 
  --------------------------------------------------------------------------------------------------------
    Electrostatics                -49.21774390 [mEh]     -30.88460057 [kcal/mol]    -129.22116879 [kJ/mol]
      Elst10,r                    -49.21774390 [mEh]     -30.88460057 [kcal/mol]    -129.22116879 [kJ/mol]

    Exchange                       47.47173704 [mEh]      29.78896473 [kcal/mol]     124.63702844 [kJ/mol]
      Exch10                       47.47173704 [mEh]      29.78896473 [kcal/mol]     124.63702844 [kJ/mol]
      Exch10(S^2)                  46.72097216 [mEh]      29.31785266 [kcal/mol]     122.66589551 [kJ/mol]

    Induction                     -22.24059443 [mEh]     -13.95618371 [kcal/mol]     -58.39267264 [kJ/mol]
      Ind20,r                     -26.42393214 [mEh]     -16.58126775 [kcal/mol]     -69.37602426 [kJ/mol]
      Exch-Ind20,r                 13.74534600 [mEh]       8.62533484 [kcal/mol]      36.08840096 [kJ/mol]
      delta HF,r (2)               -9.56200830 [mEh]      -6.00025080 [kcal/mol]     -25.10504934 [kJ/mol]

    Dispersion                    -12.34306277 [mEh]      -7.74538883 [kcal/mol]     -32.40670684 [kJ/mol]
      Disp20                      -15.43342224 [mEh]      -9.68461867 [kcal/mol]     -40.52044450 [kJ/mol]
      Exch-Disp20                   3.09035947 [mEh]       1.93922984 [kcal/mol]       8.11373766 [kJ/mol]
      Disp20 (SS)                  -7.71671112 [mEh]      -4.84230933 [kcal/mol]     -20.26022225 [kJ/mol]
      Disp20 (OS)                  -7.71671112 [mEh]      -4.84230933 [kcal/mol]     -20.26022225 [kJ/mol]
      Exch-Disp20 (SS)              1.94268823 [mEh]       1.21905527 [kcal/mol]       5.10052725 [kJ/mol]
      Exch-Disp20 (OS)              1.14767123 [mEh]       0.72017457 [kcal/mol]       3.01321041 [kJ/mol]

  Total HF                        -23.98660128 [mEh]     -15.05181955 [kcal/mol]     -62.97681299 [kJ/mol]
  Total SAPT0                     -36.32966406 [mEh]     -22.79720837 [kcal/mol]     -95.38351984 [kJ/mol]

  Special recipe for scaled SAPT0 (see Manual):
    Electrostatics sSAPT0         -49.21774390 [mEh]     -30.88460057 [kcal/mol]    -129.22116879 [kJ/mol]
    Exchange sSAPT0                47.47173704 [mEh]      29.78896473 [kcal/mol]     124.63702844 [kJ/mol]
    Induction sSAPT0              -21.56726275 [mEh]     -13.53366170 [kcal/mol]     -56.62484054 [kJ/mol]
    Dispersion sSAPT0             -12.19167794 [mEh]      -7.65039341 [kcal/mol]     -32.00924601 [kJ/mol]
  Total sSAPT0                    -35.50494754 [mEh]     -22.27969094 [kcal/mol]     -93.21822691 [kJ/mol]
  --------------------------------------------------------------------------------------------------------

*** tstop() called on r282 at Fri Sep 10 18:01:14 2021
Module time:
	user time   =      67.01 seconds =       1.12 minutes
	system time =      12.55 seconds =       0.21 minutes
	total time  =         80 seconds =       1.33 minutes
Total time:
	user time   =     147.60 seconds =       2.46 minutes
	system time =      14.53 seconds =       0.24 minutes
	total time  =        163 seconds =       2.72 minutes

    Psi4 stopped on: Friday, 10 September 2021 06:01PM
    Psi4 wall time for execution: 0:02:43.00

*** Psi4 exiting successfully. Buy a developer a beer!
