
    -----------------------------------------------------------------------
          Psi4: An Open-Source Ab Initio Electronic Structure Package
                               Psi4 1.3.2 release

                         Git: Rev {HEAD} ecbda83 


    R. M. Parrish, L. A. Burns, D. G. A. Smith, A. C. Simmonett,
    A. E. DePrince III, E. G. Hohenstein, U. Bozkaya, A. Yu. Sokolov,
    R. Di Remigio, R. M. Richard, J. F. Gonthier, A. M. James,
    H. R. McAlexander, A. Kumar, M. Saitow, X. Wang, B. P. Pritchard,
    P. Verma, H. F. Schaefer III, K. Patkowski, R. A. King, E. F. Valeev,
    F. A. Evangelista, J. M. Turney, T. D. Crawford, and C. D. Sherrill,
    J. Chem. Theory Comput. 13(7) pp 3185--3197 (2017).
    (doi: 10.1021/acs.jctc.7b00174)


                         Additional Contributions by
    P. Kraus, H. Kruse, M. H. Lechner, M. C. Schieber, R. A. Shaw,
    A. Alenaizan, R. Galvelis, Z. L. Glick, S. Lehtola, and J. P. Misiewicz

    -----------------------------------------------------------------------


    Psi4 started on: Friday, 10 September 2021 05:54PM

    Process ID: 56934
    Host:       r282
    PSIDATADIR: /home/r08543048/miniconda3/share/psi4
    Memory:     500.0 MiB
    Threads:    1
    
  ==> Input File <==

--------------------------------------------------------------------------
# Any line starting with the # character is a comment line
#! Sample  computation

memory 22 gb

molecule Dimer {
0 1
 C -2.973503    0.229070   -0.000385
 O -2.529893   -1.008965   -0.000708
 O -2.297349    1.245760    0.000473
 H -4.066626    0.256204   -0.000997
 H -1.522180   -1.024514    0.000003
  
 
 
 
 
 

    
    
 --
0 1
 C   2.404068   -0.643379   -0.000055
 C   0.931847   -0.301735    0.000455
 O   0.093995   -1.217638    0.000835
 N   0.581435    0.992149    0.000212
 H  -0.409312    1.231914    0.000518
 H   1.278289    1.713152    0.000024
 C   3.381587    0.522900   -0.000607
 H   3.262540    1.147068    0.885308
 H   4.405332    0.153646   -0.000990
 H   3.261783    1.146862   -0.886563
 H   2.561385   -1.281754    0.870206
 H   2.560731   -1.282023   -0.870236
 
 
 
 
 
 
units angstrom

no_reorient
symmetry c1
}

set globals{
  basis jun-cc-pvtz
}

energy('sapt0')


--------------------------------------------------------------------------

  Memory set to  20.489 GiB by Python driver.

  //>>>>>>>>>>>>>>>>>>>>>>>>>>>>>>>>>>>//
  //              Dimer HF             //
  //<<<<<<<<<<<<<<<<<<<<<<<<<<<<<<<<<<<//


*** tstart() called on r282
*** at Fri Sep 10 17:54:12 2021

   => Loading Basis Set <=

    Name: JUN-CC-PVTZ
    Role: ORBITAL
    Keyword: BASIS
    atoms 1, 6-7, 12        entry C          line   217 file /home/r08543048/miniconda3/share/psi4/basis/jun-cc-pvtz.gbs 
    atoms 2-3, 8            entry O          line   305 file /home/r08543048/miniconda3/share/psi4/basis/jun-cc-pvtz.gbs 
    atoms 4-5, 10-11, 13-17 entry H          line    36 file /home/r08543048/miniconda3/share/psi4/basis/jun-cc-pvtz.gbs 
    atoms 9                 entry N          line   261 file /home/r08543048/miniconda3/share/psi4/basis/jun-cc-pvtz.gbs 


         ---------------------------------------------------------
                                   SCF
               by Justin Turney, Rob Parrish, Andy Simmonett
                          and Daniel G. A. Smith
                              RHF Reference
                        1 Threads,  20980 MiB Core
         ---------------------------------------------------------

  ==> Geometry <==

    Molecular point group: c1
    Full point group: C1

    Geometry (in Angstrom), charge = 0, multiplicity = 1:

       Center              X                  Y                   Z               Mass       
    ------------   -----------------  -----------------  -----------------  -----------------
         C           -2.879285235685     0.246174344954    -0.000407789364    12.000000000000
         O           -2.435675235685    -0.991860655046    -0.000730789364    15.994914619570
         O           -2.203131235685     1.262864344954     0.000450210636    15.994914619570
         H           -3.972408235685     0.273308344954    -0.001019789364     1.007825032230
         H           -1.427962235685    -1.007409655046    -0.000019789364     1.007825032230
         C            2.498285764315    -0.626274655046    -0.000077789364    12.000000000000
         C            1.026064764315    -0.284630655046     0.000432210636    12.000000000000
         O            0.188212764315    -1.200533655046     0.000812210636    15.994914619570
         N            0.675652764315     1.009253344954     0.000189210636    14.003074004430
         H           -0.315094235685     1.249018344954     0.000495210636     1.007825032230
         H            1.372506764315     1.730256344954     0.000001210636     1.007825032230
         C            3.475804764315     0.540004344954    -0.000629789364    12.000000000000
         H            3.356757764315     1.164172344954     0.885285210636     1.007825032230
         H            4.499549764315     0.170750344954    -0.001012789364     1.007825032230
         H            3.356000764315     1.163966344954    -0.886585789364     1.007825032230
         H            2.655602764315    -1.264649655046     0.870183210636     1.007825032230
         H            2.654948764315    -1.264918655046    -0.870258789364     1.007825032230

  Running in c1 symmetry.

  Rotational constants: A =      0.16332  B =      0.02848  C =      0.02447 [cm^-1]
  Rotational constants: A =   4896.33666  B =    853.83338  C =    733.61041 [MHz]
  Nuclear repulsion =  376.867356646118822

  Charge       = 0
  Multiplicity = 1
  Electrons    = 64
  Nalpha       = 32
  Nbeta        = 32

  ==> Algorithm <==

  SCF Algorithm Type is DF.
  DIIS enabled.
  MOM disabled.
  Fractional occupation disabled.
  Guess Type is SAD.
  Energy threshold   = 1.00e-08
  Density threshold  = 1.00e-08
  Integral threshold = 0.00e+00

  ==> Primary Basis <==

  Basis Set: JUN-CC-PVTZ
    Blend: JUN-CC-PVTZ
    Number of shells: 158
    Number of basis function: 438
    Number of Cartesian functions: 495
    Spherical Harmonics?: true
    Max angular momentum: 3

   => Loading Basis Set <=

    Name: (JUN-CC-PVTZ AUX)
    Role: JKFIT
    Keyword: DF_BASIS_SCF
    atoms 1, 6-7, 12        entry C          line   152 file /home/r08543048/miniconda3/share/psi4/basis/jun-cc-pvtz-jkfit.gbs 
    atoms 2-3, 8            entry O          line   272 file /home/r08543048/miniconda3/share/psi4/basis/jun-cc-pvtz-jkfit.gbs 
    atoms 4-5, 10-11, 13-17 entry H          line    70 file /home/r08543048/miniconda3/share/psi4/basis/jun-cc-pvtz-jkfit.gbs 
    atoms 9                 entry N          line   212 file /home/r08543048/miniconda3/share/psi4/basis/jun-cc-pvtz-jkfit.gbs 

  ==> Pre-Iterations <==

   -------------------------------------------------------
    Irrep   Nso     Nmo     Nalpha   Nbeta   Ndocc  Nsocc
   -------------------------------------------------------
     A        438     438       0       0       0       0
   -------------------------------------------------------
    Total     438     438      32      32      32       0
   -------------------------------------------------------

  ==> Integral Setup <==

  ==> DiskDFJK: Density-Fitted J/K Matrices <==

    J tasked:                  Yes
    K tasked:                  Yes
    wK tasked:                  No
    OpenMP threads:              1
    Integrals threads:           1
    Memory [MiB]:            15735
    Algorithm:                Core
    Integral Cache:           SAVE
    Schwarz Cutoff:          1E-12
    Fitting Condition:       1E-10

   => Auxiliary Basis Set <=

  Basis Set: (JUN-CC-PVTZ AUX)
    Blend: JUN-CC-PVTZ-JKFIT
    Number of shells: 322
    Number of basis function: 1030
    Number of Cartesian functions: 1243
    Spherical Harmonics?: true
    Max angular momentum: 4

  Minimum eigenvalue in the overlap matrix is 3.6108827351E-05.
  Using Symmetric Orthogonalization.

  SCF Guess: Superposition of Atomic Densities via on-the-fly atomic UHF.

  ==> Iterations <==

                           Total Energy        Delta E     RMS |[F,P]|

   @DF-RHF iter SAD:  -434.60574349983352   -4.34606e+02   0.00000e+00 
   @DF-RHF iter   1:  -435.68965503657580   -1.08391e+00   1.80714e-03 DIIS
   @DF-RHF iter   2:  -435.89755162072782   -2.07897e-01   1.03702e-03 DIIS
   @DF-RHF iter   3:  -435.96611748389194   -6.85659e-02   1.75031e-04 DIIS
   @DF-RHF iter   4:  -435.96969445009745   -3.57697e-03   7.68893e-05 DIIS
   @DF-RHF iter   5:  -435.97034585014205   -6.51400e-04   1.72556e-05 DIIS
   @DF-RHF iter   6:  -435.97040224925746   -5.63991e-05   8.39635e-06 DIIS
   @DF-RHF iter   7:  -435.97041432998992   -1.20807e-05   2.76161e-06 DIIS
   @DF-RHF iter   8:  -435.97041674159124   -2.41160e-06   1.06988e-06 DIIS
   @DF-RHF iter   9:  -435.97041708289561   -3.41304e-07   4.03342e-07 DIIS
   @DF-RHF iter  10:  -435.97041711841064   -3.55150e-08   1.46687e-07 DIIS
   @DF-RHF iter  11:  -435.97041712222170   -3.81107e-09   4.91381e-08 DIIS
   @DF-RHF iter  12:  -435.97041712258346   -3.61752e-10   1.82369e-08 DIIS
   @DF-RHF iter  13:  -435.97041712263439   -5.09317e-11   4.44351e-09 DIIS
  Energy and wave function converged.


  ==> Post-Iterations <==

    Orbital Energies [Eh]
    ---------------------

    Doubly Occupied:                                                      

       1A    -20.589375     2A    -20.548904     3A    -20.531976  
       4A    -15.587178     5A    -11.381892     6A    -11.366946  
       7A    -11.250554     8A    -11.241762     9A     -1.450141  
      10A     -1.390277    11A     -1.351439    12A     -1.223555  
      13A     -1.067574    14A     -0.915742    15A     -0.874221  
      16A     -0.800599    17A     -0.748346    18A     -0.714821  
      19A     -0.701426    20A     -0.656008    21A     -0.654105  
      22A     -0.613497    23A     -0.609779    24A     -0.571636  
      25A     -0.566361    26A     -0.564926    27A     -0.532092  
      28A     -0.510753    29A     -0.473385    30A     -0.465155  
      31A     -0.435103    32A     -0.424660  

    Virtual:                                                              

      33A      0.040501    34A      0.056358    35A      0.064595  
      36A      0.067138    37A      0.070806    38A      0.085383  
      39A      0.087299    40A      0.097716    41A      0.104297  
      42A      0.104389    43A      0.114762    44A      0.116403  
      45A      0.142261    46A      0.149735    47A      0.151041  
      48A      0.166861    49A      0.176016    50A      0.178364  
      51A      0.185529    52A      0.201415    53A      0.207916  
      54A      0.218742    55A      0.218955    56A      0.231385  
      57A      0.238979    58A      0.248308    59A      0.253893  
      60A      0.255646    61A      0.267474    62A      0.273570  
      63A      0.275582    64A      0.285370    65A      0.287066  
      66A      0.296158    67A      0.296491    68A      0.302532  
      69A      0.304723    70A      0.324091    71A      0.328854  
      72A      0.342902    73A      0.342956    74A      0.346616  
      75A      0.359778    76A      0.365349    77A      0.384618  
      78A      0.397821    79A      0.400776    80A      0.413446  
      81A      0.415277    82A      0.429426    83A      0.448556  
      84A      0.448695    85A      0.460982    86A      0.471874  
      87A      0.478754    88A      0.485259    89A      0.502154  
      90A      0.506864    91A      0.519304    92A      0.520422  
      93A      0.530862    94A      0.533264    95A      0.552005  
      96A      0.559655    97A      0.571517    98A      0.586041  
      99A      0.590527   100A      0.600983   101A      0.616409  
     102A      0.619733   103A      0.624014   104A      0.626295  
     105A      0.636076   106A      0.654017   107A      0.686006  
     108A      0.689896   109A      0.695368   110A      0.698647  
     111A      0.708256   112A      0.719416   113A      0.749549  
     114A      0.756832   115A      0.762934   116A      0.768725  
     117A      0.769572   118A      0.787436   119A      0.795554  
     120A      0.799610   121A      0.806509   122A      0.816000  
     123A      0.843298   124A      0.854700   125A      0.861329  
     126A      0.880202   127A      0.882857   128A      0.887083  
     129A      0.892854   130A      0.906450   131A      0.913961  
     132A      0.921179   133A      0.942836   134A      0.953522  
     135A      0.959820   136A      0.968569   137A      1.008096  
     138A      1.018934   139A      1.028888   140A      1.035254  
     141A      1.052284   142A      1.063444   143A      1.064410  
     144A      1.078137   145A      1.084955   146A      1.113648  
     147A      1.121491   148A      1.130217   149A      1.132312  
     150A      1.168858   151A      1.188609   152A      1.208953  
     153A      1.216452   154A      1.219139   155A      1.230800  
     156A      1.243779   157A      1.261206   158A      1.285890  
     159A      1.311455   160A      1.316138   161A      1.331652  
     162A      1.334040   163A      1.347266   164A      1.354023  
     165A      1.357652   166A      1.364395   167A      1.376597  
     168A      1.399135   169A      1.401372   170A      1.421876  
     171A      1.432916   172A      1.438963   173A      1.441502  
     174A      1.445209   175A      1.467837   176A      1.477412  
     177A      1.489292   178A      1.493171   179A      1.508765  
     180A      1.533383   181A      1.538516   182A      1.552467  
     183A      1.562710   184A      1.578846   185A      1.602041  
     186A      1.604813   187A      1.619586   188A      1.651624  
     189A      1.657267   190A      1.692506   191A      1.711024  
     192A      1.727693   193A      1.744301   194A      1.785705  
     195A      1.811590   196A      1.821827   197A      1.830886  
     198A      1.850484   199A      1.885365   200A      1.899377  
     201A      1.917484   202A      1.935925   203A      1.938363  
     204A      1.980535   205A      2.014293   206A      2.029406  
     207A      2.116283   208A      2.140444   209A      2.205647  
     210A      2.212306   211A      2.234809   212A      2.266600  
     213A      2.272435   214A      2.297851   215A      2.335837  
     216A      2.350787   217A      2.361037   218A      2.397927  
     219A      2.402071   220A      2.451287   221A      2.456110  
     222A      2.544803   223A      2.567520   224A      2.623289  
     225A      2.623868   226A      2.675559   227A      2.679725  
     228A      2.721618   229A      2.783007   230A      2.788651  
     231A      2.796159   232A      2.848029   233A      2.855925  
     234A      2.860394   235A      2.930712   236A      2.937658  
     237A      2.976550   238A      3.004392   239A      3.028513  
     240A      3.031104   241A      3.073331   242A      3.091018  
     243A      3.110135   244A      3.113214   245A      3.127237  
     246A      3.172687   247A      3.190334   248A      3.193449  
     249A      3.223884   250A      3.227503   251A      3.285888  
     252A      3.311114   253A      3.330009   254A      3.331903  
     255A      3.334294   256A      3.359771   257A      3.368239  
     258A      3.373233   259A      3.388314   260A      3.413276  
     261A      3.443331   262A      3.452133   263A      3.464465  
     264A      3.477217   265A      3.481115   266A      3.503294  
     267A      3.505234   268A      3.518485   269A      3.536441  
     270A      3.538806   271A      3.551901   272A      3.567755  
     273A      3.577175   274A      3.583509   275A      3.597274  
     276A      3.614948   277A      3.639079   278A      3.644006  
     279A      3.646795   280A      3.663749   281A      3.666866  
     282A      3.694012   283A      3.698988   284A      3.728633  
     285A      3.750521   286A      3.774698   287A      3.814856  
     288A      3.838601   289A      3.860975   290A      3.862257  
     291A      3.878966   292A      3.882119   293A      3.901829  
     294A      3.925727   295A      3.935021   296A      3.949369  
     297A      3.975614   298A      3.979626   299A      3.998432  
     300A      4.032006   301A      4.055822   302A      4.064939  
     303A      4.101327   304A      4.113749   305A      4.165650  
     306A      4.175644   307A      4.183421   308A      4.219287  
     309A      4.236064   310A      4.245757   311A      4.255022  
     312A      4.269222   313A      4.292336   314A      4.304939  
     315A      4.316889   316A      4.343636   317A      4.356758  
     318A      4.361748   319A      4.378205   320A      4.398495  
     321A      4.404510   322A      4.436652   323A      4.446583  
     324A      4.463399   325A      4.490024   326A      4.492453  
     327A      4.536829   328A      4.540153   329A      4.575607  
     330A      4.591885   331A      4.612229   332A      4.616377  
     333A      4.637010   334A      4.640078   335A      4.666749  
     336A      4.678044   337A      4.686266   338A      4.732521  
     339A      4.758521   340A      4.760517   341A      4.765556  
     342A      4.771046   343A      4.800896   344A      4.846338  
     345A      4.888430   346A      4.900012   347A      4.916606  
     348A      4.946811   349A      4.967266   350A      5.013381  
     351A      5.043844   352A      5.082300   353A      5.105763  
     354A      5.178483   355A      5.200111   356A      5.204764  
     357A      5.225628   358A      5.236197   359A      5.252487  
     360A      5.266202   361A      5.266781   362A      5.344120  
     363A      5.344344   364A      5.378058   365A      5.415813  
     366A      5.418529   367A      5.442317   368A      5.526870  
     369A      5.545265   370A      5.583560   371A      5.620486  
     372A      5.640750   373A      5.651807   374A      5.651910  
     375A      5.719938   376A      5.735594   377A      5.737151  
     378A      5.747495   379A      5.765187   380A      5.835187  
     381A      5.861534   382A      5.862570   383A      5.883825  
     384A      5.890331   385A      5.922681   386A      5.941431  
     387A      5.963598   388A      5.987597   389A      6.011877  
     390A      6.054119   391A      6.082321   392A      6.110910  
     393A      6.216000   394A      6.218279   395A      6.219833  
     396A      6.318077   397A      6.454221   398A      6.466829  
     399A      6.527068   400A      6.529927   401A      6.562493  
     402A      6.677184   403A      6.707165   404A      6.714090  
     405A      6.742705   406A      6.832608   407A      6.875231  
     408A      6.934939   409A      6.989877   410A      7.111766  
     411A      7.174378   412A      7.216479   413A      7.233455  
     414A      7.256892   415A      7.295580   416A      7.351790  
     417A      7.391342   418A      7.395555   419A      7.409998  
     420A      7.483678   421A      7.507336   422A      7.533789  
     423A      7.554429   424A      7.682914   425A      7.733321  
     426A      7.827292   427A      7.837518   428A      8.007023  
     429A      8.077487   430A      8.379836   431A     12.414806  
     432A     12.716826   433A     13.653786   434A     13.869339  
     435A     14.339210   436A     14.702553   437A     14.755777  
     438A     16.185127  

    Final Occupation by Irrep:
              A 
    DOCC [    32 ]

  @DF-RHF Final Energy:  -435.97041712263439

   => Energetics <=

    Nuclear Repulsion Energy =            376.8673566461188216
    One-Electron Energy =               -1344.0471735614655699
    Two-Electron Energy =                 531.2093997927122473
    Total Energy =                       -435.9704171226344442

Computation Completed


Properties will be evaluated at   0.000000,   0.000000,   0.000000 [a0]

Properties computed using the SCF density matrix

  Nuclear Dipole Moment: [e a0]
     X:    11.3949      Y:     2.0686      Z:    -0.0027

  Electronic Dipole Moment: [e a0]
     X:   -10.1403      Y:    -1.4174      Z:     0.0020

  Dipole Moment: [e a0]
     X:     1.2547      Y:     0.6512      Z:    -0.0007     Total:     1.4136

  Dipole Moment: [D]
     X:     3.1891      Y:     1.6553      Z:    -0.0019     Total:     3.5931


*** tstop() called on r282 at Fri Sep 10 17:54:54 2021
Module time:
	user time   =      41.11 seconds =       0.69 minutes
	system time =       1.02 seconds =       0.02 minutes
	total time  =         42 seconds =       0.70 minutes
Total time:
	user time   =      41.11 seconds =       0.69 minutes
	system time =       1.02 seconds =       0.02 minutes
	total time  =         42 seconds =       0.70 minutes

  //>>>>>>>>>>>>>>>>>>>>>>>>>>>>>>>>>>>//
  //            Monomer A HF           //
  //<<<<<<<<<<<<<<<<<<<<<<<<<<<<<<<<<<<//


*** tstart() called on r282
*** at Fri Sep 10 17:54:54 2021

   => Loading Basis Set <=

    Name: JUN-CC-PVTZ
    Role: ORBITAL
    Keyword: BASIS
    atoms 1, 6-7, 12        entry C          line   217 file /home/r08543048/miniconda3/share/psi4/basis/jun-cc-pvtz.gbs 
    atoms 2-3, 8            entry O          line   305 file /home/r08543048/miniconda3/share/psi4/basis/jun-cc-pvtz.gbs 
    atoms 4-5, 10-11, 13-17 entry H          line    36 file /home/r08543048/miniconda3/share/psi4/basis/jun-cc-pvtz.gbs 
    atoms 9                 entry N          line   261 file /home/r08543048/miniconda3/share/psi4/basis/jun-cc-pvtz.gbs 


         ---------------------------------------------------------
                                   SCF
               by Justin Turney, Rob Parrish, Andy Simmonett
                          and Daniel G. A. Smith
                              RHF Reference
                        1 Threads,  20980 MiB Core
         ---------------------------------------------------------

  ==> Geometry <==

    Molecular point group: c1
    Full point group: C1

    Geometry (in Angstrom), charge = 0, multiplicity = 1:

       Center              X                  Y                   Z               Mass       
    ------------   -----------------  -----------------  -----------------  -----------------
         C           -2.879285235685     0.246174344954    -0.000407789364    12.000000000000
         O           -2.435675235685    -0.991860655046    -0.000730789364    15.994914619570
         O           -2.203131235685     1.262864344954     0.000450210636    15.994914619570
         H           -3.972408235685     0.273308344954    -0.001019789364     1.007825032230
         H           -1.427962235685    -1.007409655046    -0.000019789364     1.007825032230
      Gh(C)           2.498285764315    -0.626274655046    -0.000077789364    12.000000000000
      Gh(C)           1.026064764315    -0.284630655046     0.000432210636    12.000000000000
      Gh(O)           0.188212764315    -1.200533655046     0.000812210636    15.994914619570
      Gh(N)           0.675652764315     1.009253344954     0.000189210636    14.003074004430
      Gh(H)          -0.315094235685     1.249018344954     0.000495210636     1.007825032230
      Gh(H)           1.372506764315     1.730256344954     0.000001210636     1.007825032230
      Gh(C)           3.475804764315     0.540004344954    -0.000629789364    12.000000000000
      Gh(H)           3.356757764315     1.164172344954     0.885285210636     1.007825032230
      Gh(H)           4.499549764315     0.170750344954    -0.001012789364     1.007825032230
      Gh(H)           3.356000764315     1.163966344954    -0.886585789364     1.007825032230
      Gh(H)           2.655602764315    -1.264649655046     0.870183210636     1.007825032230
      Gh(H)           2.654948764315    -1.264918655046    -0.870258789364     1.007825032230

  Running in c1 symmetry.

  Rotational constants: A =      0.16332  B =      0.02848  C =      0.02447 [cm^-1]
  Rotational constants: A =   4896.33666  B =    853.83338  C =    733.61041 [MHz]
  Nuclear repulsion =   69.984036237324361

  Charge       = 0
  Multiplicity = 1
  Electrons    = 24
  Nalpha       = 12
  Nbeta        = 12

  ==> Algorithm <==

  SCF Algorithm Type is DF.
  DIIS enabled.
  MOM disabled.
  Fractional occupation disabled.
  Guess Type is SAD.
  Energy threshold   = 1.00e-08
  Density threshold  = 1.00e-08
  Integral threshold = 0.00e+00

  ==> Primary Basis <==

  Basis Set: JUN-CC-PVTZ
    Blend: JUN-CC-PVTZ
    Number of shells: 158
    Number of basis function: 438
    Number of Cartesian functions: 495
    Spherical Harmonics?: true
    Max angular momentum: 3

   => Loading Basis Set <=

    Name: (JUN-CC-PVTZ AUX)
    Role: JKFIT
    Keyword: DF_BASIS_SCF
    atoms 1, 6-7, 12        entry C          line   152 file /home/r08543048/miniconda3/share/psi4/basis/jun-cc-pvtz-jkfit.gbs 
    atoms 2-3, 8            entry O          line   272 file /home/r08543048/miniconda3/share/psi4/basis/jun-cc-pvtz-jkfit.gbs 
    atoms 4-5, 10-11, 13-17 entry H          line    70 file /home/r08543048/miniconda3/share/psi4/basis/jun-cc-pvtz-jkfit.gbs 
    atoms 9                 entry N          line   212 file /home/r08543048/miniconda3/share/psi4/basis/jun-cc-pvtz-jkfit.gbs 

  ==> Pre-Iterations <==

   -------------------------------------------------------
    Irrep   Nso     Nmo     Nalpha   Nbeta   Ndocc  Nsocc
   -------------------------------------------------------
     A        438     438       0       0       0       0
   -------------------------------------------------------
    Total     438     438      12      12      12       0
   -------------------------------------------------------

  ==> Integral Setup <==

  ==> DiskDFJK: Density-Fitted J/K Matrices <==

    J tasked:                  Yes
    K tasked:                  Yes
    wK tasked:                  No
    OpenMP threads:              1
    Integrals threads:           1
    Memory [MiB]:            15735
    Algorithm:                Core
    Integral Cache:           LOAD
    Schwarz Cutoff:          1E-12
    Fitting Condition:       1E-10

   => Auxiliary Basis Set <=

  Basis Set: (JUN-CC-PVTZ AUX)
    Blend: JUN-CC-PVTZ-JKFIT
    Number of shells: 322
    Number of basis function: 1030
    Number of Cartesian functions: 1243
    Spherical Harmonics?: true
    Max angular momentum: 4

  Minimum eigenvalue in the overlap matrix is 3.6108827351E-05.
  Using Symmetric Orthogonalization.

  SCF Guess: Superposition of Atomic Densities via on-the-fly atomic UHF.

  ==> Iterations <==

                           Total Energy        Delta E     RMS |[F,P]|

   @DF-RHF iter SAD:  -187.99344970085389   -1.87993e+02   0.00000e+00 
   @DF-RHF iter   1:  -188.73027111871687   -7.36821e-01   1.20092e-03 DIIS
   @DF-RHF iter   2:  -188.79254009276457   -6.22690e-02   8.63179e-04 DIIS
   @DF-RHF iter   3:  -188.83760478664718   -4.50647e-02   1.02134e-04 DIIS
   @DF-RHF iter   4:  -188.83874916022006   -1.14437e-03   5.37356e-05 DIIS
   @DF-RHF iter   5:  -188.83903903914742   -2.89879e-04   1.28893e-05 DIIS
   @DF-RHF iter   6:  -188.83908107543041   -4.20363e-05   5.55327e-06 DIIS
   @DF-RHF iter   7:  -188.83909048861651   -9.41319e-06   2.00818e-06 DIIS
   @DF-RHF iter   8:  -188.83909157534421   -1.08673e-06   6.29164e-07 DIIS
   @DF-RHF iter   9:  -188.83909168423233   -1.08888e-07   1.82112e-07 DIIS
   @DF-RHF iter  10:  -188.83909169311210   -8.87977e-09   4.05773e-08 DIIS
   @DF-RHF iter  11:  -188.83909169349403   -3.81931e-10   6.98863e-09 DIIS
  Energy and wave function converged.


  ==> Post-Iterations <==

    Orbital Energies [Eh]
    ---------------------

    Doubly Occupied:                                                      

       1A    -20.639210     2A    -20.561152     3A    -11.396755  
       4A     -1.479499     5A     -1.367559     6A     -0.900379  
       7A     -0.730778     8A     -0.709636     9A     -0.643334  
      10A     -0.594394    11A     -0.489945    12A     -0.470134  

    Virtual:                                                              

      13A      0.028250    14A      0.046039    15A      0.057280  
      16A      0.062033    17A      0.063916    18A      0.076496  
      19A      0.079146    20A      0.096040    21A      0.098527  
      22A      0.100738    23A      0.108453    24A      0.111808  
      25A      0.135568    26A      0.144153    27A      0.146028  
      28A      0.151868    29A      0.161392    30A      0.163457  
      31A      0.169063    32A      0.176619    33A      0.192746  
      34A      0.199296    35A      0.201798    36A      0.207230  
      37A      0.219271    38A      0.228983    39A      0.236825  
      40A      0.236960    41A      0.255196    42A      0.265834  
      43A      0.270553    44A      0.271017    45A      0.285306  
      46A      0.294621    47A      0.303341    48A      0.303931  
      49A      0.326922    50A      0.327654    51A      0.332640  
      52A      0.349943    53A      0.354946    54A      0.372655  
      55A      0.382019    56A      0.384393    57A      0.387508  
      58A      0.395564    59A      0.417406    60A      0.417498  
      61A      0.423915    62A      0.430988    63A      0.438246  
      64A      0.440055    65A      0.464153    66A      0.470094  
      67A      0.483884    68A      0.486072    69A      0.489562  
      70A      0.491643    71A      0.501205    72A      0.516537  
      73A      0.533070    74A      0.542242    75A      0.548786  
      76A      0.557199    77A      0.566642    78A      0.575317  
      79A      0.606592    80A      0.615834    81A      0.617288  
      82A      0.633457    83A      0.635847    84A      0.641071  
      85A      0.649731    86A      0.655276    87A      0.657173  
      88A      0.674814    89A      0.683399    90A      0.702153  
      91A      0.733298    92A      0.734557    93A      0.739217  
      94A      0.759991    95A      0.782409    96A      0.785295  
      97A      0.794421    98A      0.822325    99A      0.830213  
     100A      0.838825   101A      0.840410   102A      0.859192  
     103A      0.862220   104A      0.886177   105A      0.888558  
     106A      0.893746   107A      0.915153   108A      0.920750  
     109A      0.928133   110A      0.944194   111A      0.985545  
     112A      0.986218   113A      1.007549   114A      1.013244  
     115A      1.028623   116A      1.040406   117A      1.055031  
     118A      1.056542   119A      1.080516   120A      1.090984  
     121A      1.126739   122A      1.129573   123A      1.143390  
     124A      1.148454   125A      1.163018   126A      1.185371  
     127A      1.194544   128A      1.210378   129A      1.212241  
     130A      1.219865   131A      1.237472   132A      1.243486  
     133A      1.252123   134A      1.261141   135A      1.284989  
     136A      1.288641   137A      1.305096   138A      1.314759  
     139A      1.320729   140A      1.340923   141A      1.350489  
     142A      1.361250   143A      1.369634   144A      1.386897  
     145A      1.389463   146A      1.409331   147A      1.419427  
     148A      1.429600   149A      1.455421   150A      1.458237  
     151A      1.472898   152A      1.478592   153A      1.499657  
     154A      1.523317   155A      1.541484   156A      1.547618  
     157A      1.558287   158A      1.580635   159A      1.588853  
     160A      1.603871   161A      1.607248   162A      1.613873  
     163A      1.620309   164A      1.637976   165A      1.671571  
     166A      1.700317   167A      1.733166   168A      1.739096  
     169A      1.773583   170A      1.775674   171A      1.783033  
     172A      1.825337   173A      1.850990   174A      1.876334  
     175A      1.884459   176A      1.894931   177A      1.903382  
     178A      1.925640   179A      1.940054   180A      1.990815  
     181A      2.015562   182A      2.027740   183A      2.063286  
     184A      2.112073   185A      2.123737   186A      2.142483  
     187A      2.144796   188A      2.180278   189A      2.186388  
     190A      2.231258   191A      2.244217   192A      2.265366  
     193A      2.307516   194A      2.318294   195A      2.344622  
     196A      2.352330   197A      2.367862   198A      2.390556  
     199A      2.402607   200A      2.406140   201A      2.460382  
     202A      2.465992   203A      2.505002   204A      2.530930  
     205A      2.545996   206A      2.561360   207A      2.583969  
     208A      2.610010   209A      2.633517   210A      2.664679  
     211A      2.697554   212A      2.738765   213A      2.761276  
     214A      2.773477   215A      2.832888   216A      2.838562  
     217A      2.864380   218A      2.885174   219A      2.956643  
     220A      2.994734   221A      3.010991   222A      3.110071  
     223A      3.124953   224A      3.159901   225A      3.287323  
     226A      3.307569   227A      3.309521   228A      3.367725  
     229A      3.408470   230A      3.461073   231A      3.504267  
     232A      3.508969   233A      3.541641   234A      3.542190  
     235A      3.565808   236A      3.574550   237A      3.597180  
     238A      3.600644   239A      3.612711   240A      3.667233  
     241A      3.679506   242A      3.685539   243A      3.700259  
     244A      3.710889   245A      3.725756   246A      3.767831  
     247A      3.794342   248A      3.798020   249A      3.814962  
     250A      3.838845   251A      3.847243   252A      3.861167  
     253A      3.876005   254A      3.887099   255A      3.897370  
     256A      3.904391   257A      3.923867   258A      3.940647  
     259A      3.973083   260A      3.998394   261A      4.006645  
     262A      4.034552   263A      4.077439   264A      4.084120  
     265A      4.138899   266A      4.151225   267A      4.157231  
     268A      4.183111   269A      4.222582   270A      4.232184  
     271A      4.236428   272A      4.279191   273A      4.288383  
     274A      4.295496   275A      4.315280   276A      4.334535  
     277A      4.374001   278A      4.423032   279A      4.466932  
     280A      4.476070   281A      4.487356   282A      4.499652  
     283A      4.509148   284A      4.528940   285A      4.553603  
     286A      4.594324   287A      4.596907   288A      4.606358  
     289A      4.613368   290A      4.663087   291A      4.668949  
     292A      4.669155   293A      4.681405   294A      4.702099  
     295A      4.706477   296A      4.722237   297A      4.731675  
     298A      4.742995   299A      4.758130   300A      4.771851  
     301A      4.791977   302A      4.793244   303A      4.815465  
     304A      4.842153   305A      4.867445   306A      4.869224  
     307A      4.875895   308A      4.884526   309A      4.904491  
     310A      4.925122   311A      4.929996   312A      4.946556  
     313A      4.970687   314A      4.978685   315A      4.992129  
     316A      4.997795   317A      4.998078   318A      5.013519  
     319A      5.031188   320A      5.033334   321A      5.038949  
     322A      5.089701   323A      5.126508   324A      5.140806  
     325A      5.164859   326A      5.177350   327A      5.197239  
     328A      5.208897   329A      5.242056   330A      5.264850  
     331A      5.309882   332A      5.320096   333A      5.348476  
     334A      5.387451   335A      5.450264   336A      5.482420  
     337A      5.541647   338A      5.567565   339A      5.609233  
     340A      5.648604   341A      5.656951   342A      5.714466  
     343A      5.729931   344A      5.817467   345A      5.831593  
     346A      5.832788   347A      5.847191   348A      5.901865  
     349A      5.920311   350A      5.937084   351A      6.015143  
     352A      6.031273   353A      6.061940   354A      6.084328  
     355A      6.176758   356A      6.184536   357A      6.215081  
     358A      6.221468   359A      6.307539   360A      6.354753  
     361A      6.358809   362A      6.373579   363A      6.401288  
     364A      6.437005   365A      6.437617   366A      6.442479  
     367A      6.521667   368A      6.532557   369A      6.568443  
     370A      6.588321   371A      6.687849   372A      6.727082  
     373A      6.732512   374A      6.825988   375A      6.847914  
     376A      6.860953   377A      6.887344   378A      6.924497  
     379A      6.958421   380A      7.008945   381A      7.087228  
     382A      7.134550   383A      7.162984   384A      7.211103  
     385A      7.237274   386A      7.320251   387A      7.332195  
     388A      7.366937   389A      7.394545   390A      7.405897  
     391A      7.445298   392A      7.453019   393A      7.496463  
     394A      7.531899   395A      7.538596   396A      7.623923  
     397A      7.681115   398A      7.687030   399A      7.733214  
     400A      7.749954   401A      7.771959   402A      7.816588  
     403A      7.818323   404A      7.852613   405A      7.976301  
     406A      8.000287   407A      8.057890   408A      8.140770  
     409A      8.167000   410A      8.275071   411A      8.320176  
     412A      8.518254   413A      8.935223   414A      9.109730  
     415A      9.122927   416A      9.230002   417A      9.492643  
     418A      9.675918   419A      9.782240   420A      9.891077  
     421A      9.944200   422A     10.000844   423A     10.349750  
     424A     10.686807   425A     10.972403   426A     11.539999  
     427A     11.551853   428A     11.724506   429A     11.971288  
     430A     12.703753   431A     13.600549   432A     13.902376  
     433A     14.729775   434A     42.914012   435A     45.230321  
     436A     45.831488   437A     56.316128   438A     61.149290  

    Final Occupation by Irrep:
              A 
    DOCC [    12 ]

  @DF-RHF Final Energy:  -188.83909169349403

   => Energetics <=

    Nuclear Repulsion Energy =             69.9840362373243607
    One-Electron Energy =                -397.6807059945910510
    Two-Electron Energy =                 138.8575780637726780
    Total Energy =                       -188.8390916934940265

Computation Completed


Properties will be evaluated at   0.000000,   0.000000,   0.000000 [a0]

Properties computed using the SCF density matrix

  Nuclear Dipole Moment: [e a0]
     X:  -112.9802      Y:     5.5009      Z:    -0.0108

  Electronic Dipole Moment: [e a0]
     X:   112.8367      Y:    -6.3218      Z:     0.0105

  Dipole Moment: [e a0]
     X:    -0.1435      Y:    -0.8209      Z:    -0.0004     Total:     0.8333

  Dipole Moment: [D]
     X:    -0.3648      Y:    -2.0864      Z:    -0.0009     Total:     2.1181


*** tstop() called on r282 at Fri Sep 10 17:55:15 2021
Module time:
	user time   =      20.17 seconds =       0.34 minutes
	system time =       0.45 seconds =       0.01 minutes
	total time  =         21 seconds =       0.35 minutes
Total time:
	user time   =      61.29 seconds =       1.02 minutes
	system time =       1.47 seconds =       0.02 minutes
	total time  =         63 seconds =       1.05 minutes

  //>>>>>>>>>>>>>>>>>>>>>>>>>>>>>>>>>>>//
  //            Monomer B HF           //
  //<<<<<<<<<<<<<<<<<<<<<<<<<<<<<<<<<<<//


*** tstart() called on r282
*** at Fri Sep 10 17:55:15 2021

   => Loading Basis Set <=

    Name: JUN-CC-PVTZ
    Role: ORBITAL
    Keyword: BASIS
    atoms 1, 6-7, 12        entry C          line   217 file /home/r08543048/miniconda3/share/psi4/basis/jun-cc-pvtz.gbs 
    atoms 2-3, 8            entry O          line   305 file /home/r08543048/miniconda3/share/psi4/basis/jun-cc-pvtz.gbs 
    atoms 4-5, 10-11, 13-17 entry H          line    36 file /home/r08543048/miniconda3/share/psi4/basis/jun-cc-pvtz.gbs 
    atoms 9                 entry N          line   261 file /home/r08543048/miniconda3/share/psi4/basis/jun-cc-pvtz.gbs 


         ---------------------------------------------------------
                                   SCF
               by Justin Turney, Rob Parrish, Andy Simmonett
                          and Daniel G. A. Smith
                              RHF Reference
                        1 Threads,  20980 MiB Core
         ---------------------------------------------------------

  ==> Geometry <==

    Molecular point group: c1
    Full point group: C1

    Geometry (in Angstrom), charge = 0, multiplicity = 1:

       Center              X                  Y                   Z               Mass       
    ------------   -----------------  -----------------  -----------------  -----------------
      Gh(C)          -2.879285235685     0.246174344954    -0.000407789364    12.000000000000
      Gh(O)          -2.435675235685    -0.991860655046    -0.000730789364    15.994914619570
      Gh(O)          -2.203131235685     1.262864344954     0.000450210636    15.994914619570
      Gh(H)          -3.972408235685     0.273308344954    -0.001019789364     1.007825032230
      Gh(H)          -1.427962235685    -1.007409655046    -0.000019789364     1.007825032230
         C            2.498285764315    -0.626274655046    -0.000077789364    12.000000000000
         C            1.026064764315    -0.284630655046     0.000432210636    12.000000000000
         O            0.188212764315    -1.200533655046     0.000812210636    15.994914619570
         N            0.675652764315     1.009253344954     0.000189210636    14.003074004430
         H           -0.315094235685     1.249018344954     0.000495210636     1.007825032230
         H            1.372506764315     1.730256344954     0.000001210636     1.007825032230
         C            3.475804764315     0.540004344954    -0.000629789364    12.000000000000
         H            3.356757764315     1.164172344954     0.885285210636     1.007825032230
         H            4.499549764315     0.170750344954    -0.001012789364     1.007825032230
         H            3.356000764315     1.163966344954    -0.886585789364     1.007825032230
         H            2.655602764315    -1.264649655046     0.870183210636     1.007825032230
         H            2.654948764315    -1.264918655046    -0.870258789364     1.007825032230

  Running in c1 symmetry.

  Rotational constants: A =      0.16332  B =      0.02848  C =      0.02447 [cm^-1]
  Rotational constants: A =   4896.33666  B =    853.83338  C =    733.61041 [MHz]
  Nuclear repulsion =  179.307607867205462

  Charge       = 0
  Multiplicity = 1
  Electrons    = 40
  Nalpha       = 20
  Nbeta        = 20

  ==> Algorithm <==

  SCF Algorithm Type is DF.
  DIIS enabled.
  MOM disabled.
  Fractional occupation disabled.
  Guess Type is SAD.
  Energy threshold   = 1.00e-08
  Density threshold  = 1.00e-08
  Integral threshold = 0.00e+00

  ==> Primary Basis <==

  Basis Set: JUN-CC-PVTZ
    Blend: JUN-CC-PVTZ
    Number of shells: 158
    Number of basis function: 438
    Number of Cartesian functions: 495
    Spherical Harmonics?: true
    Max angular momentum: 3

   => Loading Basis Set <=

    Name: (JUN-CC-PVTZ AUX)
    Role: JKFIT
    Keyword: DF_BASIS_SCF
    atoms 1, 6-7, 12        entry C          line   152 file /home/r08543048/miniconda3/share/psi4/basis/jun-cc-pvtz-jkfit.gbs 
    atoms 2-3, 8            entry O          line   272 file /home/r08543048/miniconda3/share/psi4/basis/jun-cc-pvtz-jkfit.gbs 
    atoms 4-5, 10-11, 13-17 entry H          line    70 file /home/r08543048/miniconda3/share/psi4/basis/jun-cc-pvtz-jkfit.gbs 
    atoms 9                 entry N          line   212 file /home/r08543048/miniconda3/share/psi4/basis/jun-cc-pvtz-jkfit.gbs 

  ==> Pre-Iterations <==

   -------------------------------------------------------
    Irrep   Nso     Nmo     Nalpha   Nbeta   Ndocc  Nsocc
   -------------------------------------------------------
     A        438     438       0       0       0       0
   -------------------------------------------------------
    Total     438     438      20      20      20       0
   -------------------------------------------------------

  ==> Integral Setup <==

  ==> DiskDFJK: Density-Fitted J/K Matrices <==

    J tasked:                  Yes
    K tasked:                  Yes
    wK tasked:                  No
    OpenMP threads:              1
    Integrals threads:           1
    Memory [MiB]:            15735
    Algorithm:                Core
    Integral Cache:           LOAD
    Schwarz Cutoff:          1E-12
    Fitting Condition:       1E-10

   => Auxiliary Basis Set <=

  Basis Set: (JUN-CC-PVTZ AUX)
    Blend: JUN-CC-PVTZ-JKFIT
    Number of shells: 322
    Number of basis function: 1030
    Number of Cartesian functions: 1243
    Spherical Harmonics?: true
    Max angular momentum: 4

  Minimum eigenvalue in the overlap matrix is 3.6108827351E-05.
  Using Symmetric Orthogonalization.

  SCF Guess: Superposition of Atomic Densities via on-the-fly atomic UHF.

  ==> Iterations <==

                           Total Energy        Delta E     RMS |[F,P]|

   @DF-RHF iter SAD:  -246.34311832521021   -2.46343e+02   0.00000e+00 
   @DF-RHF iter   1:  -246.89236498287229   -5.49247e-01   1.48618e-03 DIIS
   @DF-RHF iter   2:  -247.05400527333450   -1.61640e-01   8.52914e-04 DIIS
   @DF-RHF iter   3:  -247.10214204223342   -4.81368e-02   1.65392e-04 DIIS
   @DF-RHF iter   4:  -247.10510988650256   -2.96784e-03   7.33126e-05 DIIS
   @DF-RHF iter   5:  -247.10574477319966   -6.34887e-04   1.23607e-05 DIIS
   @DF-RHF iter   6:  -247.10578255474417   -3.77815e-05   5.04758e-06 DIIS
   @DF-RHF iter   7:  -247.10578750385471   -4.94911e-06   2.10738e-06 DIIS
   @DF-RHF iter   8:  -247.10578870656477   -1.20271e-06   7.89051e-07 DIIS
   @DF-RHF iter   9:  -247.10578891146699   -2.04902e-07   1.76996e-07 DIIS
   @DF-RHF iter  10:  -247.10578892158000   -1.01130e-08   4.73674e-08 DIIS
   @DF-RHF iter  11:  -247.10578892209520   -5.15200e-10   1.37994e-08 DIIS
   @DF-RHF iter  12:  -247.10578892213584   -4.06430e-11   3.95503e-09 DIIS
  Energy and wave function converged.


  ==> Post-Iterations <==

    Orbital Energies [Eh]
    ---------------------

    Doubly Occupied:                                                      

       1A    -20.505629     2A    -15.591336     3A    -11.347874  
       4A    -11.241084     5A    -11.236543     6A     -1.361811  
       7A     -1.217599     8A     -1.059690     9A     -0.904146  
      10A     -0.795894    11A     -0.738231    12A     -0.644880  
      13A     -0.644832    14A     -0.594966    15A     -0.558648  
      16A     -0.551413    17A     -0.525004    18A     -0.502839  
      19A     -0.413648    20A     -0.408537  

    Virtual:                                                              

      21A      0.038411    22A      0.045690    23A      0.059709  
      24A      0.068071    25A      0.068302    26A      0.079057  
      27A      0.082935    28A      0.096602    29A      0.106458  
      30A      0.107646    31A      0.113822    32A      0.122210  
      33A      0.132832    34A      0.145634    35A      0.154215  
      36A      0.155288    37A      0.172821    38A      0.182364  
      39A      0.183009    40A      0.193014    41A      0.200290  
      42A      0.204399    43A      0.213475    44A      0.228274  
      45A      0.228663    46A      0.232827    47A      0.243419  
      48A      0.255414    49A      0.258480    50A      0.268810  
      51A      0.274590    52A      0.286516    53A      0.297008  
      54A      0.297577    55A      0.301725    56A      0.308105  
      57A      0.320104    58A      0.334126    59A      0.335506  
      60A      0.347303    61A      0.348243    62A      0.357990  
      63A      0.373899    64A      0.376062    65A      0.387651  
      66A      0.391176    67A      0.398764    68A      0.402412  
      69A      0.417751    70A      0.438973    71A      0.446363  
      72A      0.460728    73A      0.465076    74A      0.469804  
      75A      0.487570    76A      0.487880    77A      0.493467  
      78A      0.503422    79A      0.505822    80A      0.507205  
      81A      0.529551    82A      0.531731    83A      0.540347  
      84A      0.554830    85A      0.562641    86A      0.567254  
      87A      0.574499    88A      0.608234    89A      0.620439  
      90A      0.621984    91A      0.622638    92A      0.642173  
      93A      0.663158    94A      0.672418    95A      0.698454  
      96A      0.708040    97A      0.710694    98A      0.726929  
      99A      0.735293   100A      0.753822   101A      0.757597  
     102A      0.766320   103A      0.783775   104A      0.787897  
     105A      0.790572   106A      0.797226   107A      0.814657  
     108A      0.824917   109A      0.846495   110A      0.856745  
     111A      0.860631   112A      0.875508   113A      0.888564  
     114A      0.899181   115A      0.910286   116A      0.922280  
     117A      0.925866   118A      0.937411   119A      0.941943  
     120A      0.966747   121A      0.973745   122A      0.978194  
     123A      0.996771   124A      1.000906   125A      1.012044  
     126A      1.019497   127A      1.031918   128A      1.047276  
     129A      1.054916   130A      1.067097   131A      1.068789  
     132A      1.081641   133A      1.089194   134A      1.093235  
     135A      1.105841   136A      1.133885   137A      1.138832  
     138A      1.156590   139A      1.168605   140A      1.177643  
     141A      1.199532   142A      1.228062   143A      1.229476  
     144A      1.248236   145A      1.276458   146A      1.292815  
     147A      1.300872   148A      1.314077   149A      1.322143  
     150A      1.330750   151A      1.334506   152A      1.365114  
     153A      1.380525   154A      1.382770   155A      1.398613  
     156A      1.426204   157A      1.433092   158A      1.439993  
     159A      1.444550   160A      1.449192   161A      1.492865  
     162A      1.498342   163A      1.504143   164A      1.516378  
     165A      1.516895   166A      1.525360   167A      1.563009  
     168A      1.572440   169A      1.589703   170A      1.594424  
     171A      1.620027   172A      1.644737   173A      1.666631  
     174A      1.667885   175A      1.704844   176A      1.705832  
     177A      1.742670   178A      1.747230   179A      1.757017  
     180A      1.775250   181A      1.780818   182A      1.822337  
     183A      1.826670   184A      1.842333   185A      1.858610  
     186A      1.885693   187A      1.913208   188A      1.928468  
     189A      1.952583   190A      1.953815   191A      1.965099  
     192A      1.992499   193A      2.033355   194A      2.057434  
     195A      2.086734   196A      2.095841   197A      2.176134  
     198A      2.232416   199A      2.292000   200A      2.309440  
     201A      2.334092   202A      2.397828   203A      2.399111  
     204A      2.445969   205A      2.472477   206A      2.483690  
     207A      2.534614   208A      2.611083   209A      2.638662  
     210A      2.693036   211A      2.756883   212A      2.764039  
     213A      2.778808   214A      2.782742   215A      2.799970  
     216A      2.834411   217A      2.837475   218A      2.850878  
     219A      2.868533   220A      2.879068   221A      2.922378  
     222A      2.954704   223A      2.955648   224A      2.964826  
     225A      2.990973   226A      3.008209   227A      3.018422  
     228A      3.034726   229A      3.043363   230A      3.085737  
     231A      3.090220   232A      3.098947   233A      3.118078  
     234A      3.137746   235A      3.178149   236A      3.198456  
     237A      3.230983   238A      3.242722   239A      3.255954  
     240A      3.291789   241A      3.342327   242A      3.344528  
     243A      3.370419   244A      3.376459   245A      3.382638  
     246A      3.418868   247A      3.424515   248A      3.450891  
     249A      3.463036   250A      3.465622   251A      3.468719  
     252A      3.506054   253A      3.518406   254A      3.520175  
     255A      3.530464   256A      3.547784   257A      3.552895  
     258A      3.558943   259A      3.579365   260A      3.597565  
     261A      3.620280   262A      3.648734   263A      3.659753  
     264A      3.677096   265A      3.694883   266A      3.697542  
     267A      3.716233   268A      3.727739   269A      3.733680  
     270A      3.763585   271A      3.818874   272A      3.851818  
     273A      3.868622   274A      3.874310   275A      3.893202  
     276A      3.896992   277A      3.917457   278A      3.981543  
     279A      3.984245   280A      4.010697   281A      4.044999  
     282A      4.065153   283A      4.067145   284A      4.070140  
     285A      4.099075   286A      4.125897   287A      4.170346  
     288A      4.189375   289A      4.206204   290A      4.229892  
     291A      4.244398   292A      4.248481   293A      4.264073  
     294A      4.298259   295A      4.309813   296A      4.324191  
     297A      4.357550   298A      4.360781   299A      4.363815  
     300A      4.390412   301A      4.402610   302A      4.420276  
     303A      4.421900   304A      4.439169   305A      4.450822  
     306A      4.486475   307A      4.495716   308A      4.515665  
     309A      4.532461   310A      4.553312   311A      4.561248  
     312A      4.578030   313A      4.584476   314A      4.616055  
     315A      4.624191   316A      4.642355   317A      4.682526  
     318A      4.683790   319A      4.693497   320A      4.723382  
     321A      4.750509   322A      4.769102   323A      4.787039  
     324A      4.787163   325A      4.795462   326A      4.798471  
     327A      4.846842   328A      4.885435   329A      4.896483  
     330A      4.922482   331A      4.951093   332A      4.964667  
     333A      4.985886   334A      5.038639   335A      5.051317  
     336A      5.066434   337A      5.103333   338A      5.113884  
     339A      5.158960   340A      5.207980   341A      5.212595  
     342A      5.223306   343A      5.241549   344A      5.252830  
     345A      5.272599   346A      5.286323   347A      5.329688  
     348A      5.349548   349A      5.394405   350A      5.419428  
     351A      5.438873   352A      5.449833   353A      5.555304  
     354A      5.565160   355A      5.588363   356A      5.613186  
     357A      5.649629   358A      5.662297   359A      5.731135  
     360A      5.740946   361A      5.747699   362A      5.755661  
     363A      5.773679   364A      5.802484   365A      5.872190  
     366A      5.900032   367A      5.907565   368A      5.959702  
     369A      5.972737   370A      5.979144   371A      6.050318  
     372A      6.084075   373A      6.094520   374A      6.150578  
     375A      6.170599   376A      6.220866   377A      6.251003  
     378A      6.279692   379A      6.456443   380A      6.470015  
     381A      6.477979   382A      6.517457   383A      6.536979  
     384A      6.538615   385A      6.583126   386A      6.718636  
     387A      6.728974   388A      6.769278   389A      6.791923  
     390A      6.885920   391A      6.907973   392A      7.016420  
     393A      7.176448   394A      7.189884   395A      7.275583  
     396A      7.280049   397A      7.391953   398A      7.448714  
     399A      7.475435   400A      7.539453   401A      7.563527  
     402A      7.604409   403A      7.744082   404A      7.794193  
     405A      7.845852   406A      7.972949   407A      8.026562  
     408A      8.097851   409A      8.426446   410A      8.687917  
     411A      8.912411   412A      9.363685   413A      9.550264  
     414A      9.721238   415A      9.758251   416A      9.822740  
     417A      9.852034   418A      9.878582   419A      9.960324  
     420A     10.056363   421A     10.350081   422A     10.562165  
     423A     10.970093   424A     11.375663   425A     11.528560  
     426A     11.562196   427A     11.934317   428A     12.442265  
     429A     13.069003   430A     13.640461   431A     13.840325  
     432A     13.997466   433A     14.357891   434A     14.720324  
     435A     16.177454   436A     44.974618   437A     60.356921  
     438A     61.446706  

    Final Occupation by Irrep:
              A 
    DOCC [    20 ]

  @DF-RHF Final Energy:  -247.10578892213584

   => Energetics <=

    Nuclear Repulsion Energy =            179.3076078672054621
    One-Electron Energy =                -691.1375853837137129
    Two-Electron Energy =                 264.7241885943724355
    Total Energy =                       -247.1057889221358437

Computation Completed


Properties will be evaluated at   0.000000,   0.000000,   0.000000 [a0]

Properties computed using the SCF density matrix

  Nuclear Dipole Moment: [e a0]
     X:   124.3751      Y:    -3.4323      Z:     0.0081

  Electronic Dipole Moment: [e a0]
     X:  -123.3087      Y:     4.8881      Z:    -0.0086

  Dipole Moment: [e a0]
     X:     1.0664      Y:     1.4558      Z:    -0.0005     Total:     1.8046

  Dipole Moment: [D]
     X:     2.7104      Y:     3.7003      Z:    -0.0012     Total:     4.5868


*** tstop() called on r282 at Fri Sep 10 17:55:38 2021
Module time:
	user time   =      22.84 seconds =       0.38 minutes
	system time =       0.50 seconds =       0.01 minutes
	total time  =         23 seconds =       0.38 minutes
Total time:
	user time   =      84.14 seconds =       1.40 minutes
	system time =       1.97 seconds =       0.03 minutes
	total time  =         86 seconds =       1.43 minutes
  Constructing Basis Sets for SAPT...

   => Loading Basis Set <=

    Name: (JUN-CC-PVTZ AUX)
    Role: RIFIT
    Keyword: DF_BASIS_SAPT
    atoms 1, 6-7, 12        entry C          line   132 file /home/r08543048/miniconda3/share/psi4/basis/jun-cc-pvtz-ri.gbs 
    atoms 2-3, 8            entry O          line   244 file /home/r08543048/miniconda3/share/psi4/basis/jun-cc-pvtz-ri.gbs 
    atoms 4-5, 10-11, 13-17 entry H          line    30 file /home/r08543048/miniconda3/share/psi4/basis/jun-cc-pvtz-ri.gbs 
    atoms 9                 entry N          line   188 file /home/r08543048/miniconda3/share/psi4/basis/jun-cc-pvtz-ri.gbs 


  //>>>>>>>>>>>>>>>>>>>>>>>>>>>>>>>>>>>//
  //               SAPT0               //
  //<<<<<<<<<<<<<<<<<<<<<<<<<<<<<<<<<<<//


*** tstart() called on r282
*** at Fri Sep 10 17:55:38 2021

        SAPT0  
    Ed Hohenstein
     6 June 2009

      Orbital Information
  --------------------------
    NSO        =       438
    NMO        =       438
    NRI        =      1046
    NOCC A     =        12
    NOCC B     =        20
    FOCC A     =         0
    FOCC B     =         0
    NVIR A     =       426
    NVIR B     =       418

    Elst10,r            =    -0.051081819361 [Eh]
    Exch10              =     0.049557239322 [Eh]
    Exch10 (S^2)        =     0.048712032332 [Eh]

    Iter     Energy [mEh]          dE [mEh]         Residual      Time [s]
       1      -9.12418740       9.124187405      19.813822891             0
       2     -10.41606275       1.291875341      10.561746136             1
       3     -11.19162458       0.775561832       2.638117337             1
       4     -11.11076901      -0.080855566       1.093048305             2
       5     -11.09722747      -0.013541545       0.313124670             3
       6     -11.10827184       0.011044373       0.086907802             3
       7     -11.10799781      -0.000274029       0.028594220             4
       8     -11.10724536      -0.000752453       0.007061357             5
       9     -11.10728063       0.000035276       0.002341197             5
      10     -11.10732063       0.000040003       0.000537043             6
      11     -11.10731572      -0.000004918       0.000115837             6
      12     -11.10731445      -0.000001266       0.000027380             7
      13     -11.10731486       0.000000411       0.000004441             8
      14     -11.10731481      -0.000000047       0.000000756             8

    CHF Iterations converged


    Iter     Energy [mEh]          dE [mEh]         Residual      Time [s]
       1     -13.40982180      13.409821804      26.832656973             1
       2     -15.80111056       2.391288759      15.155821393             2
       3     -17.20254383       1.401433269       3.695004702             2
       4     -17.09283087      -0.109712961       1.474552307             3
       5     -17.06180281      -0.031028063       0.425023418             4
       6     -17.07577073       0.013967922       0.173474687             4
       7     -17.07905390       0.003283165       0.040392841             5
       8     -17.07792343      -0.001130469       0.012255683             6
       9     -17.07779628      -0.000127145       0.003451838             7
      10     -17.07786546       0.000069176       0.000748005             7
      11     -17.07786899       0.000003536       0.000143734             8
      12     -17.07786645      -0.000002541       0.000037345             9
      13     -17.07786632      -0.000000134       0.000012385             9
      14     -17.07786654       0.000000218       0.000002659            10
      15     -17.07786652      -0.000000021       0.000000644            11

    CHF Iterations converged

    Ind20,r (A<-B)      =    -0.011107314814 [Eh]
    Ind20,r (B<-A)      =    -0.017077866516 [Eh]
    Ind20,r             =    -0.028185181331 [Eh]
    Exch-Ind20,r (A<-B) =     0.006316609553 [Eh]
    Exch-Ind20,r (B<-A) =     0.008211873099 [Eh]
    Exch-Ind20,r        =     0.014528482652 [Eh]
    Disp20              =    -0.015674370871 [Eh]
    Disp20 (SS)         =    -0.007837185436 [Eh]
    Disp20 (OS)         =    -0.007837185436 [Eh]
    Exch-Disp20         =     0.003159360061 [Eh]
    Exch-Disp20 (SS)    =     0.001988643520 [Eh]
    Exch-Disp20 (OS)    =     0.001170716541 [Eh]

    SAPT Results 
  --------------------------------------------------------------------------------------------------------
    Electrostatics                -51.08181936 [mEh]     -32.05432559 [kcal/mol]    -134.11529826 [kJ/mol]
      Elst10,r                    -51.08181936 [mEh]     -32.05432559 [kcal/mol]    -134.11529826 [kJ/mol]

    Exchange                       49.55723932 [mEh]      31.09763717 [kcal/mol]     130.11251391 [kJ/mol]
      Exch10                       49.55723932 [mEh]      31.09763717 [kcal/mol]     130.11251391 [kJ/mol]
      Exch10(S^2)                  48.71203233 [mEh]      30.56726178 [kcal/mol]     127.89342327 [kJ/mol]

    Induction                     -24.01192697 [mEh]     -15.06771165 [kcal/mol]     -63.04330556 [kJ/mol]
      Ind20,r                     -28.18518133 [mEh]     -17.68646831 [kcal/mol]     -74.00018339 [kJ/mol]
      Exch-Ind20,r                 14.52848265 [mEh]       9.11676050 [kcal/mol]      38.14452595 [kJ/mol]
      delta HF,r (2)              -10.35522829 [mEh]      -6.49800385 [kcal/mol]     -27.18764812 [kJ/mol]

    Dispersion                    -12.51501081 [mEh]      -7.85328785 [kcal/mol]     -32.85815636 [kJ/mol]
      Disp20                      -15.67437087 [mEh]      -9.83581622 [kcal/mol]     -41.15305505 [kJ/mol]
      Exch-Disp20                   3.15936006 [mEh]       1.98252837 [kcal/mol]       8.29489870 [kJ/mol]
      Disp20 (SS)                  -7.83718544 [mEh]      -4.91790811 [kcal/mol]     -20.57652753 [kJ/mol]
      Disp20 (OS)                  -7.83718544 [mEh]      -4.91790811 [kcal/mol]     -20.57652753 [kJ/mol]
      Exch-Disp20 (SS)              1.98864352 [mEh]       1.24789265 [kcal/mol]       5.22118284 [kJ/mol]
      Exch-Disp20 (OS)              1.17071654 [mEh]       0.73463572 [kcal/mol]       3.07371585 [kJ/mol]

  Total HF                        -25.53650700 [mEh]     -16.02440007 [kcal/mol]     -67.04608990 [kJ/mol]
  Total SAPT0                     -38.05151781 [mEh]     -23.87768792 [kcal/mol]     -99.90424626 [kJ/mol]

  Special recipe for scaled SAPT0 (see Manual):
    Electrostatics sSAPT0         -51.08181936 [mEh]     -32.05432559 [kcal/mol]    -134.11529826 [kJ/mol]
    Exchange sSAPT0                49.55723932 [mEh]      31.09763717 [kcal/mol]     130.11251391 [kJ/mol]
    Induction sSAPT0              -23.24247407 [mEh]     -14.58487267 [kcal/mol]     -61.02310726 [kJ/mol]
    Dispersion sSAPT0             -12.34768578 [mEh]      -7.74828981 [kcal/mol]     -32.41884456 [kJ/mol]
  Total sSAPT0                    -37.11473989 [mEh]     -23.28985090 [kcal/mol]     -97.44473617 [kJ/mol]
  --------------------------------------------------------------------------------------------------------

*** tstop() called on r282 at Fri Sep 10 17:56:58 2021
Module time:
	user time   =      66.71 seconds =       1.11 minutes
	system time =      12.43 seconds =       0.21 minutes
	total time  =         80 seconds =       1.33 minutes
Total time:
	user time   =     150.96 seconds =       2.52 minutes
	system time =      14.40 seconds =       0.24 minutes
	total time  =        166 seconds =       2.77 minutes

    Psi4 stopped on: Friday, 10 September 2021 05:56PM
    Psi4 wall time for execution: 0:02:46.42

*** Psi4 exiting successfully. Buy a developer a beer!
