
    -----------------------------------------------------------------------
          Psi4: An Open-Source Ab Initio Electronic Structure Package
                               Psi4 1.3.2 release

                         Git: Rev {HEAD} ecbda83 


    R. M. Parrish, L. A. Burns, D. G. A. Smith, A. C. Simmonett,
    A. E. DePrince III, E. G. Hohenstein, U. Bozkaya, A. Yu. Sokolov,
    R. Di Remigio, R. M. Richard, J. F. Gonthier, A. M. James,
    H. R. McAlexander, A. Kumar, M. Saitow, X. Wang, B. P. Pritchard,
    P. Verma, H. F. Schaefer III, K. Patkowski, R. A. King, E. F. Valeev,
    F. A. Evangelista, J. M. Turney, T. D. Crawford, and C. D. Sherrill,
    J. Chem. Theory Comput. 13(7) pp 3185--3197 (2017).
    (doi: 10.1021/acs.jctc.7b00174)


                         Additional Contributions by
    P. Kraus, H. Kruse, M. H. Lechner, M. C. Schieber, R. A. Shaw,
    A. Alenaizan, R. Galvelis, Z. L. Glick, S. Lehtola, and J. P. Misiewicz

    -----------------------------------------------------------------------


    Psi4 started on: Friday, 10 September 2021 05:49PM

    Process ID: 56928
    Host:       r282
    PSIDATADIR: /home/r08543048/miniconda3/share/psi4
    Memory:     500.0 MiB
    Threads:    1
    
  ==> Input File <==

--------------------------------------------------------------------------
# Any line starting with the # character is a comment line
#! Sample  computation

memory 22 gb

molecule Dimer {
0 1
 C -3.807992   -0.755605    0.000108
 C -2.981527    0.517684    0.005327
 C -1.498427    0.258094   -0.001048
 O -1.009396   -0.865431   -0.007641
 O -0.792329    1.379834    0.001360
 H -3.585460   -1.365064    0.873459
 H -4.870355   -0.517877    0.005179
 H -3.591400   -1.354020   -0.882335
 H -3.195308    1.133852    0.880251
 H -3.201138    1.144984   -0.860154
 H  0.188285    1.175741   -0.002537

    
    
 --
0 1
 C  3.967006   -0.054855    0.002948
 C  2.461864   -0.045689   -0.000156
 O  1.843815    1.028213   -0.005844
 N  1.838888   -1.235034    0.003287
 H  4.386835   -1.057687    0.009809
 H  4.316204    0.479233   -0.878127
 H  4.312766    0.489966    0.878756
 H  0.818797   -1.254837   -0.000491
 H  2.366291   -2.087754    0.007105
  
  
  
 
 
 
 
 
 
units angstrom

no_reorient
symmetry c1
}

set globals{
  basis jun-cc-pvtz
}

energy('sapt0')


--------------------------------------------------------------------------

  Memory set to  20.489 GiB by Python driver.

  //>>>>>>>>>>>>>>>>>>>>>>>>>>>>>>>>>>>//
  //              Dimer HF             //
  //<<<<<<<<<<<<<<<<<<<<<<<<<<<<<<<<<<<//


*** tstart() called on r282
*** at Fri Sep 10 17:49:18 2021

   => Loading Basis Set <=

    Name: JUN-CC-PVTZ
    Role: ORBITAL
    Keyword: BASIS
    atoms 1-3, 12-13  entry C          line   217 file /home/r08543048/miniconda3/share/psi4/basis/jun-cc-pvtz.gbs 
    atoms 4-5, 14     entry O          line   305 file /home/r08543048/miniconda3/share/psi4/basis/jun-cc-pvtz.gbs 
    atoms 6-11, 16-20 entry H          line    36 file /home/r08543048/miniconda3/share/psi4/basis/jun-cc-pvtz.gbs 
    atoms 15          entry N          line   261 file /home/r08543048/miniconda3/share/psi4/basis/jun-cc-pvtz.gbs 


         ---------------------------------------------------------
                                   SCF
               by Justin Turney, Rob Parrish, Andy Simmonett
                          and Daniel G. A. Smith
                              RHF Reference
                        1 Threads,  20980 MiB Core
         ---------------------------------------------------------

  ==> Geometry <==

    Molecular point group: c1
    Full point group: C1

    Geometry (in Angstrom), charge = 0, multiplicity = 1:

       Center              X                  Y                   Z               Mass       
    ------------   -----------------  -----------------  -----------------  -----------------
         C           -3.823350679761    -0.779476536200     0.000337987445    12.000000000000
         C           -2.996885679761     0.493812463800     0.005556987445    12.000000000000
         C           -1.513785679761     0.234222463800    -0.000818012555    12.000000000000
         O           -1.024754679761    -0.889302536200    -0.007411012555    15.994914619570
         O           -0.807687679761     1.355962463800     0.001589987445    15.994914619570
         H           -3.600818679761    -1.388935536200     0.873688987445     1.007825032230
         H           -4.885713679761    -0.541748536200     0.005408987445     1.007825032230
         H           -3.606758679761    -1.377891536200    -0.882105012555     1.007825032230
         H           -3.210666679761     1.109980463800     0.880480987445     1.007825032230
         H           -3.216496679761     1.121112463800    -0.859924012555     1.007825032230
         H            0.172926320239     1.151869463800    -0.002307012555     1.007825032230
         C            3.951647320239    -0.078726536200     0.003177987445    12.000000000000
         C            2.446505320239    -0.069560536200     0.000073987445    12.000000000000
         O            1.828456320239     1.004341463800    -0.005614012555    15.994914619570
         N            1.823529320239    -1.258905536200     0.003516987445    14.003074004430
         H            4.371476320239    -1.081558536200     0.010038987445     1.007825032230
         H            4.300845320239     0.455361463800    -0.877897012555     1.007825032230
         H            4.297407320239     0.466094463800     0.878985987445     1.007825032230
         H            0.803438320239    -1.278708536200    -0.000261012555     1.007825032230
         H            2.350932320239    -2.111625536200     0.007334987445     1.007825032230

  Running in c1 symmetry.

  Rotational constants: A =      0.15081  B =      0.02017  C =      0.01797 [cm^-1]
  Rotational constants: A =   4521.31908  B =    604.79090  C =    538.71042 [MHz]
  Nuclear repulsion =  455.810549464536905

  Charge       = 0
  Multiplicity = 1
  Electrons    = 72
  Nalpha       = 36
  Nbeta        = 36

  ==> Algorithm <==

  SCF Algorithm Type is DF.
  DIIS enabled.
  MOM disabled.
  Fractional occupation disabled.
  Guess Type is SAD.
  Energy threshold   = 1.00e-08
  Density threshold  = 1.00e-08
  Integral threshold = 0.00e+00

  ==> Primary Basis <==

  Basis Set: JUN-CC-PVTZ
    Blend: JUN-CC-PVTZ
    Number of shells: 183
    Number of basis function: 505
    Number of Cartesian functions: 570
    Spherical Harmonics?: true
    Max angular momentum: 3

   => Loading Basis Set <=

    Name: (JUN-CC-PVTZ AUX)
    Role: JKFIT
    Keyword: DF_BASIS_SCF
    atoms 1-3, 12-13  entry C          line   152 file /home/r08543048/miniconda3/share/psi4/basis/jun-cc-pvtz-jkfit.gbs 
    atoms 4-5, 14     entry O          line   272 file /home/r08543048/miniconda3/share/psi4/basis/jun-cc-pvtz-jkfit.gbs 
    atoms 6-11, 16-20 entry H          line    70 file /home/r08543048/miniconda3/share/psi4/basis/jun-cc-pvtz-jkfit.gbs 
    atoms 15          entry N          line   212 file /home/r08543048/miniconda3/share/psi4/basis/jun-cc-pvtz-jkfit.gbs 

  ==> Pre-Iterations <==

   -------------------------------------------------------
    Irrep   Nso     Nmo     Nalpha   Nbeta   Ndocc  Nsocc
   -------------------------------------------------------
     A        505     505       0       0       0       0
   -------------------------------------------------------
    Total     505     505      36      36      36       0
   -------------------------------------------------------

  ==> Integral Setup <==

  ==> DiskDFJK: Density-Fitted J/K Matrices <==

    J tasked:                  Yes
    K tasked:                  Yes
    wK tasked:                  No
    OpenMP threads:              1
    Integrals threads:           1
    Memory [MiB]:            15735
    Algorithm:                Core
    Integral Cache:           SAVE
    Schwarz Cutoff:          1E-12
    Fitting Condition:       1E-10

   => Auxiliary Basis Set <=

  Basis Set: (JUN-CC-PVTZ AUX)
    Blend: JUN-CC-PVTZ-JKFIT
    Number of shells: 371
    Number of basis function: 1185
    Number of Cartesian functions: 1429
    Spherical Harmonics?: true
    Max angular momentum: 4

  Minimum eigenvalue in the overlap matrix is 3.2442861627E-05.
  Using Symmetric Orthogonalization.

  SCF Guess: Superposition of Atomic Densities via on-the-fly atomic UHF.

  ==> Iterations <==

                           Total Energy        Delta E     RMS |[F,P]|

   @DF-RHF iter SAD:  -473.56731563041842   -4.73567e+02   0.00000e+00 
   @DF-RHF iter   1:  -474.69586263703843   -1.12855e+00   1.67787e-03 DIIS
   @DF-RHF iter   2:  -474.95660691301345   -2.60744e-01   9.07637e-04 DIIS
   @DF-RHF iter   3:  -475.02782431715156   -7.12174e-02   1.69992e-04 DIIS
   @DF-RHF iter   4:  -475.03229562858252   -4.47131e-03   7.61055e-05 DIIS
   @DF-RHF iter   5:  -475.03316890506727   -8.73276e-04   1.49117e-05 DIIS
   @DF-RHF iter   6:  -475.03322619174281   -5.72867e-05   7.20203e-06 DIIS
   @DF-RHF iter   7:  -475.03323711007511   -1.09183e-05   2.35998e-06 DIIS
   @DF-RHF iter   8:  -475.03323929362477   -2.18355e-06   9.56021e-07 DIIS
   @DF-RHF iter   9:  -475.03323964348385   -3.49859e-07   3.40906e-07 DIIS
   @DF-RHF iter  10:  -475.03323968025694   -3.67731e-08   1.11307e-07 DIIS
   @DF-RHF iter  11:  -475.03323968332984   -3.07290e-09   4.09028e-08 DIIS
   @DF-RHF iter  12:  -475.03323968362196   -2.92118e-10   1.33791e-08 DIIS
   @DF-RHF iter  13:  -475.03323968365368   -3.17186e-11   3.82556e-09 DIIS
  Energy and wave function converged.


  ==> Post-Iterations <==

    Orbital Energies [Eh]
    ---------------------

    Doubly Occupied:                                                      

       1A    -20.578694     2A    -20.537424     3A    -20.529860  
       4A    -15.584149     5A    -11.375458     6A    -11.366122  
       7A    -11.243858     8A    -11.235994     9A    -11.214410  
      10A     -1.443016    11A     -1.387956    12A     -1.341147  
      13A     -1.218854    14A     -1.056673    15A     -1.014061  
      16A     -0.904556    17A     -0.809889    18A     -0.780778  
      19A     -0.739926    20A     -0.707440    21A     -0.672740  
      22A     -0.663016    23A     -0.648228    24A     -0.624404  
      25A     -0.598031    26A     -0.577878    27A     -0.573947  
      28A     -0.567001    29A     -0.532712    30A     -0.523286  
      31A     -0.515851    32A     -0.495176    33A     -0.467265  
      34A     -0.453479    35A     -0.432003    36A     -0.421827  

    Virtual:                                                              

      37A      0.039677    38A      0.053051    39A      0.063495  
      40A      0.066504    41A      0.073009    42A      0.079236  
      43A      0.079624    44A      0.096983    45A      0.101027  
      46A      0.107232    47A      0.110492    48A      0.113322  
      49A      0.125616    50A      0.130486    51A      0.142849  
      52A      0.143083    53A      0.152019    54A      0.162698  
      55A      0.170341    56A      0.183550    57A      0.189276  
      58A      0.191622    59A      0.196168    60A      0.198301  
      61A      0.217031    62A      0.222554    63A      0.222956  
      64A      0.235739    65A      0.250372    66A      0.260134  
      67A      0.264366    68A      0.272345    69A      0.274573  
      70A      0.279868    71A      0.289036    72A      0.290145  
      73A      0.294763    74A      0.299898    75A      0.307129  
      76A      0.307825    77A      0.316633    78A      0.322093  
      79A      0.324279    80A      0.328499    81A      0.329716  
      82A      0.342132    83A      0.346168    84A      0.358981  
      85A      0.363793    86A      0.378299    87A      0.386023  
      88A      0.386642    89A      0.399735    90A      0.400128  
      91A      0.404998    92A      0.419224    93A      0.427778  
      94A      0.440913    95A      0.445861    96A      0.447417  
      97A      0.462685    98A      0.470802    99A      0.476571  
     100A      0.488160   101A      0.506972   102A      0.512643  
     103A      0.522112   104A      0.530437   105A      0.538599  
     106A      0.545341   107A      0.551746   108A      0.557751  
     109A      0.563033   110A      0.568519   111A      0.573838  
     112A      0.577786   113A      0.592234   114A      0.601369  
     115A      0.612973   116A      0.618487   117A      0.632841  
     118A      0.636743   119A      0.640842   120A      0.656874  
     121A      0.669225   122A      0.677197   123A      0.698377  
     124A      0.699709   125A      0.712171   126A      0.714566  
     127A      0.725204   128A      0.729388   129A      0.735792  
     130A      0.751981   131A      0.756192   132A      0.758149  
     133A      0.765206   134A      0.782392   135A      0.789719  
     136A      0.800473   137A      0.806428   138A      0.814052  
     139A      0.816248   140A      0.829733   141A      0.839585  
     142A      0.849195   143A      0.855291   144A      0.863031  
     145A      0.872269   146A      0.879983   147A      0.890843  
     148A      0.901014   149A      0.910485   150A      0.917547  
     151A      0.926422   152A      0.940476   153A      0.948749  
     154A      0.964437   155A      0.969935   156A      0.975457  
     157A      0.997392   158A      0.999169   159A      1.020891  
     160A      1.040119   161A      1.049002   162A      1.061391  
     163A      1.062521   164A      1.078374   165A      1.091589  
     166A      1.095803   167A      1.114476   168A      1.121396  
     169A      1.130864   170A      1.136756   171A      1.150206  
     172A      1.181952   173A      1.184554   174A      1.194853  
     175A      1.224819   176A      1.232769   177A      1.243690  
     178A      1.256338   179A      1.257390   180A      1.282931  
     181A      1.284194   182A      1.295849   183A      1.308686  
     184A      1.323860   185A      1.330081   186A      1.342214  
     187A      1.362148   188A      1.366189   189A      1.371247  
     190A      1.395772   191A      1.395953   192A      1.404745  
     193A      1.411613   194A      1.426947   195A      1.439705  
     196A      1.444939   197A      1.453812   198A      1.456062  
     199A      1.458983   200A      1.464545   201A      1.491820  
     202A      1.493220   203A      1.499790   204A      1.508105  
     205A      1.512451   206A      1.535088   207A      1.549797  
     208A      1.556258   209A      1.563836   210A      1.590113  
     211A      1.593850   212A      1.597947   213A      1.619189  
     214A      1.623303   215A      1.645899   216A      1.648733  
     217A      1.669081   218A      1.669479   219A      1.691351  
     220A      1.706632   221A      1.717306   222A      1.737765  
     223A      1.746291   224A      1.793069   225A      1.795638  
     226A      1.807904   227A      1.829498   228A      1.847256  
     229A      1.878959   230A      1.883552   231A      1.896294  
     232A      1.898665   233A      1.909365   234A      1.926977  
     235A      1.943139   236A      1.960427   237A      1.995512  
     238A      2.020328   239A      2.091952   240A      2.154314  
     241A      2.200318   242A      2.219573   243A      2.243953  
     244A      2.280666   245A      2.294052   246A      2.332497  
     247A      2.335177   248A      2.374203   249A      2.391599  
     250A      2.445234   251A      2.448941   252A      2.450786  
     253A      2.462164   254A      2.483009   255A      2.583156  
     256A      2.612972   257A      2.648590   258A      2.670091  
     259A      2.696694   260A      2.722394   261A      2.745636  
     262A      2.798051   263A      2.802293   264A      2.815544  
     265A      2.821886   266A      2.852350   267A      2.863750  
     268A      2.897802   269A      2.921812   270A      2.949262  
     271A      2.970975   272A      2.972589   273A      2.993206  
     274A      3.008116   275A      3.038261   276A      3.040106  
     277A      3.083531   278A      3.084495   279A      3.091069  
     280A      3.105537   281A      3.122140   282A      3.136114  
     283A      3.144632   284A      3.178285   285A      3.198137  
     286A      3.215635   287A      3.227331   288A      3.245260  
     289A      3.254259   290A      3.266306   291A      3.288355  
     292A      3.310074   293A      3.325135   294A      3.343982  
     295A      3.355546   296A      3.360369   297A      3.376264  
     298A      3.391464   299A      3.408867   300A      3.415054  
     301A      3.431345   302A      3.438868   303A      3.462592  
     304A      3.466579   305A      3.490671   306A      3.492610  
     307A      3.493798   308A      3.497918   309A      3.509582  
     310A      3.514813   311A      3.528766   312A      3.529292  
     313A      3.543444   314A      3.551966   315A      3.585181  
     316A      3.586181   317A      3.599698   318A      3.617462  
     319A      3.627246   320A      3.637242   321A      3.637900  
     322A      3.642797   323A      3.655959   324A      3.683197  
     325A      3.685219   326A      3.692348   327A      3.720691  
     328A      3.746018   329A      3.755708   330A      3.770975  
     331A      3.790587   332A      3.801128   333A      3.807286  
     334A      3.812449   335A      3.824100   336A      3.845782  
     337A      3.870821   338A      3.889723   339A      3.893084  
     340A      3.904364   341A      3.916550   342A      3.919925  
     343A      3.958872   344A      3.986048   345A      4.007029  
     346A      4.011602   347A      4.036301   348A      4.058206  
     349A      4.069524   350A      4.076562   351A      4.125380  
     352A      4.128587   353A      4.150173   354A      4.164470  
     355A      4.178009   356A      4.222650   357A      4.226023  
     358A      4.247204   359A      4.252740   360A      4.253907  
     361A      4.261437   362A      4.273580   363A      4.302199  
     364A      4.315040   365A      4.315683   366A      4.346447  
     367A      4.361703   368A      4.372695   369A      4.372766  
     370A      4.386024   371A      4.408544   372A      4.417838  
     373A      4.427141   374A      4.433366   375A      4.437824  
     376A      4.446169   377A      4.470244   378A      4.479605  
     379A      4.488369   380A      4.498844   381A      4.509514  
     382A      4.521064   383A      4.562787   384A      4.575581  
     385A      4.595136   386A      4.615594   387A      4.625085  
     388A      4.633437   389A      4.643576   390A      4.679858  
     391A      4.688711   392A      4.708729   393A      4.721175  
     394A      4.723495   395A      4.740872   396A      4.745509  
     397A      4.771996   398A      4.813825   399A      4.818434  
     400A      4.822312   401A      4.865020   402A      4.892440  
     403A      4.919371   404A      4.928857   405A      4.936138  
     406A      4.980201   407A      5.053968   408A      5.077462  
     409A      5.126758   410A      5.140760   411A      5.143288  
     412A      5.192030   413A      5.214518   414A      5.225094  
     415A      5.250831   416A      5.261278   417A      5.280549  
     418A      5.287141   419A      5.315863   420A      5.323681  
     421A      5.327699   422A      5.343056   423A      5.370179  
     424A      5.442549   425A      5.458314   426A      5.464204  
     427A      5.485115   428A      5.504400   429A      5.537318  
     430A      5.593651   431A      5.597212   432A      5.622921  
     433A      5.625112   434A      5.654575   435A      5.656813  
     436A      5.676733   437A      5.694919   438A      5.718446  
     439A      5.744996   440A      5.745088   441A      5.749597  
     442A      5.765049   443A      5.813698   444A      5.829794  
     445A      5.847384   446A      5.881530   447A      5.894245  
     448A      5.905699   449A      5.911474   450A      5.941216  
     451A      5.992439   452A      6.017658   453A      6.040340  
     454A      6.060473   455A      6.078954   456A      6.079845  
     457A      6.183952   458A      6.226286   459A      6.245893  
     460A      6.308221   461A      6.384533   462A      6.421549  
     463A      6.449976   464A      6.486665   465A      6.509527  
     466A      6.516911   467A      6.583323   468A      6.649351  
     469A      6.709045   470A      6.732047   471A      6.759784  
     472A      6.781289   473A      6.873593   474A      6.934471  
     475A      6.964435   476A      7.113495   477A      7.195604  
     478A      7.235128   479A      7.275263   480A      7.311243  
     481A      7.325795   482A      7.354345   483A      7.408780  
     484A      7.419436   485A      7.448000   486A      7.458304  
     487A      7.492788   488A      7.517051   489A      7.526851  
     490A      7.727840   491A      7.772162   492A      7.859547  
     493A      7.878150   494A      7.996210   495A      8.070815  
     496A      8.402290   497A     12.164918   498A     12.347512  
     499A     13.831089   500A     13.982368   501A     14.148201  
     502A     14.548424   503A     14.736837   504A     14.860957  
     505A     16.000967  

    Final Occupation by Irrep:
              A 
    DOCC [    36 ]

  @DF-RHF Final Energy:  -475.03323968365368

   => Energetics <=

    Nuclear Repulsion Energy =            455.8105494645369049
    One-Electron Energy =               -1554.0133646439214772
    Two-Electron Energy =                 623.1695754957308964
    Total Energy =                       -475.0332396836536191

Computation Completed


Properties will be evaluated at   0.000000,   0.000000,   0.000000 [a0]

Properties computed using the SCF density matrix

  Nuclear Dipole Moment: [e a0]
     X:    -2.0897      Y:    -3.2480      Z:     0.0313

  Electronic Dipole Moment: [e a0]
     X:     2.7146      Y:     2.3650      Z:    -0.0209

  Dipole Moment: [e a0]
     X:     0.6249      Y:    -0.8830      Z:     0.0104     Total:     1.0818

  Dipole Moment: [D]
     X:     1.5884      Y:    -2.2443      Z:     0.0264     Total:     2.7496


*** tstop() called on r282 at Fri Sep 10 17:50:32 2021
Module time:
	user time   =      72.78 seconds =       1.21 minutes
	system time =       1.52 seconds =       0.03 minutes
	total time  =         74 seconds =       1.23 minutes
Total time:
	user time   =      72.78 seconds =       1.21 minutes
	system time =       1.52 seconds =       0.03 minutes
	total time  =         74 seconds =       1.23 minutes

  //>>>>>>>>>>>>>>>>>>>>>>>>>>>>>>>>>>>//
  //            Monomer A HF           //
  //<<<<<<<<<<<<<<<<<<<<<<<<<<<<<<<<<<<//


*** tstart() called on r282
*** at Fri Sep 10 17:50:32 2021

   => Loading Basis Set <=

    Name: JUN-CC-PVTZ
    Role: ORBITAL
    Keyword: BASIS
    atoms 1-3, 12-13  entry C          line   217 file /home/r08543048/miniconda3/share/psi4/basis/jun-cc-pvtz.gbs 
    atoms 4-5, 14     entry O          line   305 file /home/r08543048/miniconda3/share/psi4/basis/jun-cc-pvtz.gbs 
    atoms 6-11, 16-20 entry H          line    36 file /home/r08543048/miniconda3/share/psi4/basis/jun-cc-pvtz.gbs 
    atoms 15          entry N          line   261 file /home/r08543048/miniconda3/share/psi4/basis/jun-cc-pvtz.gbs 


         ---------------------------------------------------------
                                   SCF
               by Justin Turney, Rob Parrish, Andy Simmonett
                          and Daniel G. A. Smith
                              RHF Reference
                        1 Threads,  20980 MiB Core
         ---------------------------------------------------------

  ==> Geometry <==

    Molecular point group: c1
    Full point group: C1

    Geometry (in Angstrom), charge = 0, multiplicity = 1:

       Center              X                  Y                   Z               Mass       
    ------------   -----------------  -----------------  -----------------  -----------------
         C           -3.823350679761    -0.779476536200     0.000337987445    12.000000000000
         C           -2.996885679761     0.493812463800     0.005556987445    12.000000000000
         C           -1.513785679761     0.234222463800    -0.000818012555    12.000000000000
         O           -1.024754679761    -0.889302536200    -0.007411012555    15.994914619570
         O           -0.807687679761     1.355962463800     0.001589987445    15.994914619570
         H           -3.600818679761    -1.388935536200     0.873688987445     1.007825032230
         H           -4.885713679761    -0.541748536200     0.005408987445     1.007825032230
         H           -3.606758679761    -1.377891536200    -0.882105012555     1.007825032230
         H           -3.210666679761     1.109980463800     0.880480987445     1.007825032230
         H           -3.216496679761     1.121112463800    -0.859924012555     1.007825032230
         H            0.172926320239     1.151869463800    -0.002307012555     1.007825032230
      Gh(C)           3.951647320239    -0.078726536200     0.003177987445    12.000000000000
      Gh(C)           2.446505320239    -0.069560536200     0.000073987445    12.000000000000
      Gh(O)           1.828456320239     1.004341463800    -0.005614012555    15.994914619570
      Gh(N)           1.823529320239    -1.258905536200     0.003516987445    14.003074004430
      Gh(H)           4.371476320239    -1.081558536200     0.010038987445     1.007825032230
      Gh(H)           4.300845320239     0.455361463800    -0.877897012555     1.007825032230
      Gh(H)           4.297407320239     0.466094463800     0.878985987445     1.007825032230
      Gh(H)           0.803438320239    -1.278708536200    -0.000261012555     1.007825032230
      Gh(H)           2.350932320239    -2.111625536200     0.007334987445     1.007825032230

  Running in c1 symmetry.

  Rotational constants: A =      0.15081  B =      0.02017  C =      0.01797 [cm^-1]
  Rotational constants: A =   4521.31908  B =    604.79090  C =    538.71042 [MHz]
  Nuclear repulsion =  178.689230751632067

  Charge       = 0
  Multiplicity = 1
  Electrons    = 40
  Nalpha       = 20
  Nbeta        = 20

  ==> Algorithm <==

  SCF Algorithm Type is DF.
  DIIS enabled.
  MOM disabled.
  Fractional occupation disabled.
  Guess Type is SAD.
  Energy threshold   = 1.00e-08
  Density threshold  = 1.00e-08
  Integral threshold = 0.00e+00

  ==> Primary Basis <==

  Basis Set: JUN-CC-PVTZ
    Blend: JUN-CC-PVTZ
    Number of shells: 183
    Number of basis function: 505
    Number of Cartesian functions: 570
    Spherical Harmonics?: true
    Max angular momentum: 3

   => Loading Basis Set <=

    Name: (JUN-CC-PVTZ AUX)
    Role: JKFIT
    Keyword: DF_BASIS_SCF
    atoms 1-3, 12-13  entry C          line   152 file /home/r08543048/miniconda3/share/psi4/basis/jun-cc-pvtz-jkfit.gbs 
    atoms 4-5, 14     entry O          line   272 file /home/r08543048/miniconda3/share/psi4/basis/jun-cc-pvtz-jkfit.gbs 
    atoms 6-11, 16-20 entry H          line    70 file /home/r08543048/miniconda3/share/psi4/basis/jun-cc-pvtz-jkfit.gbs 
    atoms 15          entry N          line   212 file /home/r08543048/miniconda3/share/psi4/basis/jun-cc-pvtz-jkfit.gbs 

  ==> Pre-Iterations <==

   -------------------------------------------------------
    Irrep   Nso     Nmo     Nalpha   Nbeta   Ndocc  Nsocc
   -------------------------------------------------------
     A        505     505       0       0       0       0
   -------------------------------------------------------
    Total     505     505      20      20      20       0
   -------------------------------------------------------

  ==> Integral Setup <==

  ==> DiskDFJK: Density-Fitted J/K Matrices <==

    J tasked:                  Yes
    K tasked:                  Yes
    wK tasked:                  No
    OpenMP threads:              1
    Integrals threads:           1
    Memory [MiB]:            15735
    Algorithm:                Core
    Integral Cache:           LOAD
    Schwarz Cutoff:          1E-12
    Fitting Condition:       1E-10

   => Auxiliary Basis Set <=

  Basis Set: (JUN-CC-PVTZ AUX)
    Blend: JUN-CC-PVTZ-JKFIT
    Number of shells: 371
    Number of basis function: 1185
    Number of Cartesian functions: 1429
    Spherical Harmonics?: true
    Max angular momentum: 4

  Minimum eigenvalue in the overlap matrix is 3.2442861627E-05.
  Using Symmetric Orthogonalization.

  SCF Guess: Superposition of Atomic Densities via on-the-fly atomic UHF.

  ==> Iterations <==

                           Total Energy        Delta E     RMS |[F,P]|

   @DF-RHF iter SAD:  -266.05704981440226   -2.66057e+02   0.00000e+00 
   @DF-RHF iter   1:  -266.74591411233871   -6.88864e-01   1.29147e-03 DIIS
   @DF-RHF iter   2:  -266.89430625668848   -1.48392e-01   7.69332e-04 DIIS
   @DF-RHF iter   3:  -266.94576264287082   -5.14564e-02   1.38379e-04 DIIS
   @DF-RHF iter   4:  -266.94863959622603   -2.87695e-03   6.50751e-05 DIIS
   @DF-RHF iter   5:  -266.94928455919705   -6.44963e-04   1.27470e-05 DIIS
   @DF-RHF iter   6:  -266.94932921490226   -4.46557e-05   6.12104e-06 DIIS
   @DF-RHF iter   7:  -266.94933800509051   -8.79019e-06   2.24371e-06 DIIS
   @DF-RHF iter   8:  -266.94933986284451   -1.85775e-06   8.10323e-07 DIIS
   @DF-RHF iter   9:  -266.94934013165675   -2.68812e-07   1.90284e-07 DIIS
   @DF-RHF iter  10:  -266.94934014536460   -1.37078e-08   5.84668e-08 DIIS
   @DF-RHF iter  11:  -266.94934014618480   -8.20194e-10   1.52919e-08 DIIS
   @DF-RHF iter  12:  -266.94934014624795   -6.31530e-11   3.52644e-09 DIIS
  Energy and wave function converged.


  ==> Post-Iterations <==

    Orbital Energies [Eh]
    ---------------------

    Doubly Occupied:                                                      

       1A    -20.622933     2A    -20.543914     3A    -11.385370  
       4A    -11.246645     5A    -11.220180     6A     -1.466741  
       7A     -1.352835     8A     -1.065456     9A     -0.916321  
      10A     -0.802742    11A     -0.701655    12A     -0.688935  
      13A     -0.663156    14A     -0.595735    15A     -0.590205  
      16A     -0.533595    17A     -0.522969    18A     -0.504080  
      19A     -0.476921    20A     -0.449343  

    Virtual:                                                              

      21A      0.030997    22A      0.048333    23A      0.054390  
      24A      0.063947    25A      0.065493    26A      0.066169  
      27A      0.076532    28A      0.091894    29A      0.097716  
      30A      0.101882    31A      0.106633    32A      0.108998  
      33A      0.122888    34A      0.127772    35A      0.135863  
      36A      0.138167    37A      0.145416    38A      0.151023  
      39A      0.163487    40A      0.171558    41A      0.172527  
      42A      0.185416    43A      0.189566    44A      0.192019  
      45A      0.207551    46A      0.207852    47A      0.211926  
      48A      0.214111    49A      0.221296    50A      0.236252  
      51A      0.245986    52A      0.261074    53A      0.261950  
      54A      0.268017    55A      0.283976    56A      0.290114  
      57A      0.292981    58A      0.303682    59A      0.306027  
      60A      0.309787    61A      0.322904    62A      0.330623  
      63A      0.333567    64A      0.344001    65A      0.344794  
      66A      0.346060    67A      0.351986    68A      0.358051  
      69A      0.376901    70A      0.380019    71A      0.383021  
      72A      0.389475    73A      0.398748    74A      0.406682  
      75A      0.411746    76A      0.414664    77A      0.426722  
      78A      0.427834    79A      0.433005    80A      0.440430  
      81A      0.445692    82A      0.457366    83A      0.468438  
      84A      0.477668    85A      0.493276    86A      0.501342  
      87A      0.507035    88A      0.513793    89A      0.514762  
      90A      0.530286    91A      0.546294    92A      0.554749  
      93A      0.556751    94A      0.566355    95A      0.575182  
      96A      0.582617    97A      0.589034    98A      0.599770  
      99A      0.625048   100A      0.625769   101A      0.632921  
     102A      0.638148   103A      0.642336   104A      0.667316  
     105A      0.670846   106A      0.686308   107A      0.696891  
     108A      0.713205   109A      0.725480   110A      0.729166  
     111A      0.739626   112A      0.743960   113A      0.748025  
     114A      0.754037   115A      0.773707   116A      0.786610  
     117A      0.787027   118A      0.798193   119A      0.804247  
     120A      0.813856   121A      0.817750   122A      0.827944  
     123A      0.837522   124A      0.844108   125A      0.850224  
     126A      0.856790   127A      0.864020   128A      0.888658  
     129A      0.894328   130A      0.909462   131A      0.910532  
     132A      0.917246   133A      0.923948   134A      0.941647  
     135A      0.957461   136A      0.978616   137A      0.987207  
     138A      0.992686   139A      1.010869   140A      1.013523  
     141A      1.021351   142A      1.027292   143A      1.044560  
     144A      1.049819   145A      1.060090   146A      1.071593  
     147A      1.079146   148A      1.087961   149A      1.115640  
     150A      1.119326   151A      1.131703   152A      1.140188  
     153A      1.149170   154A      1.175997   155A      1.192969  
     156A      1.197247   157A      1.218830   158A      1.232636  
     159A      1.240866   160A      1.253928   161A      1.267930  
     162A      1.279822   163A      1.284057   164A      1.288924  
     165A      1.308157   166A      1.318151   167A      1.329488  
     168A      1.357501   169A      1.363475   170A      1.370081  
     171A      1.398697   172A      1.408344   173A      1.415871  
     174A      1.421444   175A      1.426190   176A      1.431267  
     177A      1.445507   178A      1.455480   179A      1.468085  
     180A      1.483165   181A      1.489017   182A      1.490792  
     183A      1.495403   184A      1.519903   185A      1.528099  
     186A      1.538393   187A      1.550407   188A      1.556228  
     189A      1.557998   190A      1.568489   191A      1.598903  
     192A      1.599818   193A      1.614843   194A      1.623982  
     195A      1.625181   196A      1.629292   197A      1.662885  
     198A      1.684729   199A      1.685357   200A      1.698805  
     201A      1.734168   202A      1.735518   203A      1.762819  
     204A      1.785651   205A      1.791096   206A      1.798334  
     207A      1.809538   208A      1.821614   209A      1.841264  
     210A      1.856702   211A      1.876612   212A      1.894179  
     213A      1.905198   214A      1.907322   215A      1.930197  
     216A      1.934968   217A      1.949691   218A      1.963067  
     219A      1.993104   220A      2.032847   221A      2.073135  
     222A      2.092636   223A      2.111787   224A      2.130100  
     225A      2.175038   226A      2.207162   227A      2.257592  
     228A      2.264619   229A      2.315253   230A      2.332903  
     231A      2.360593   232A      2.367063   233A      2.397413  
     234A      2.417542   235A      2.443602   236A      2.469601  
     237A      2.479646   238A      2.484239   239A      2.517021  
     240A      2.565539   241A      2.608754   242A      2.638260  
     243A      2.663125   244A      2.671392   245A      2.712281  
     246A      2.750700   247A      2.764524   248A      2.789507  
     249A      2.821718   250A      2.832930   251A      2.835006  
     252A      2.862920   253A      2.881561   254A      2.889212  
     255A      2.927238   256A      2.943007   257A      2.952810  
     258A      2.984701   259A      3.003516   260A      3.020892  
     261A      3.030196   262A      3.042415   263A      3.093282  
     264A      3.115137   265A      3.129944   266A      3.131007  
     267A      3.146741   268A      3.226662   269A      3.239727  
     270A      3.257671   271A      3.298857   272A      3.303301  
     273A      3.337061   274A      3.346036   275A      3.367678  
     276A      3.378008   277A      3.410006   278A      3.426315  
     279A      3.453140   280A      3.466508   281A      3.485522  
     282A      3.487655   283A      3.503754   284A      3.515337  
     285A      3.518612   286A      3.549303   287A      3.554642  
     288A      3.584655   289A      3.598620   290A      3.602455  
     291A      3.610600   292A      3.625677   293A      3.629432  
     294A      3.652100   295A      3.670731   296A      3.675238  
     297A      3.682096   298A      3.721843   299A      3.731780  
     300A      3.733831   301A      3.781294   302A      3.786633  
     303A      3.794537   304A      3.829997   305A      3.838908  
     306A      3.861465   307A      3.875434   308A      3.877714  
     309A      3.880141   310A      3.881872   311A      3.903726  
     312A      3.907719   313A      3.930784   314A      3.969479  
     315A      3.989509   316A      4.001473   317A      4.005303  
     318A      4.062767   319A      4.063894   320A      4.079894  
     321A      4.109558   322A      4.117724   323A      4.150142  
     324A      4.213081   325A      4.213808   326A      4.217459  
     327A      4.234803   328A      4.237338   329A      4.244128  
     330A      4.256450   331A      4.290849   332A      4.304831  
     333A      4.322469   334A      4.326580   335A      4.332575  
     336A      4.345317   337A      4.354162   338A      4.361351  
     339A      4.396853   340A      4.403036   341A      4.416427  
     342A      4.434056   343A      4.441246   344A      4.479927  
     345A      4.480240   346A      4.494690   347A      4.505165  
     348A      4.519063   349A      4.549449   350A      4.572939  
     351A      4.601759   352A      4.608448   353A      4.609257  
     354A      4.633352   355A      4.637416   356A      4.665417  
     357A      4.681869   358A      4.691757   359A      4.699851  
     360A      4.708139   361A      4.720487   362A      4.742527  
     363A      4.755056   364A      4.762247   365A      4.764143  
     366A      4.766048   367A      4.783584   368A      4.801046  
     369A      4.801449   370A      4.823213   371A      4.829767  
     372A      4.837331   373A      4.857123   374A      4.882002  
     375A      4.884138   376A      4.916154   377A      4.928131  
     378A      4.930216   379A      4.944737   380A      4.950846  
     381A      4.968440   382A      5.012697   383A      5.044284  
     384A      5.047717   385A      5.075879   386A      5.105138  
     387A      5.119518   388A      5.128290   389A      5.134927  
     390A      5.162134   391A      5.186150   392A      5.195768  
     393A      5.211141   394A      5.256373   395A      5.274596  
     396A      5.275127   397A      5.306361   398A      5.315815  
     399A      5.345734   400A      5.373786   401A      5.441148  
     402A      5.455791   403A      5.493794   404A      5.557615  
     405A      5.606425   406A      5.618464   407A      5.643119  
     408A      5.655064   409A      5.660736   410A      5.692024  
     411A      5.739137   412A      5.739892   413A      5.788233  
     414A      5.808998   415A      5.838221   416A      5.876693  
     417A      5.884604   418A      5.896669   419A      5.906046  
     420A      5.946116   421A      5.979152   422A      5.991736  
     423A      6.020832   424A      6.038438   425A      6.044024  
     426A      6.074449   427A      6.155034   428A      6.216287  
     429A      6.229955   430A      6.259976   431A      6.291145  
     432A      6.296149   433A      6.350895   434A      6.413647  
     435A      6.440048   436A      6.480784   437A      6.499642  
     438A      6.504301   439A      6.522614   440A      6.553418  
     441A      6.558893   442A      6.572827   443A      6.679580  
     444A      6.730993   445A      6.745932   446A      6.774819  
     447A      6.803746   448A      6.860530   449A      6.887046  
     450A      6.910203   451A      7.012700   452A      7.078031  
     453A      7.145809   454A      7.191617   455A      7.285578  
     456A      7.315389   457A      7.333008   458A      7.343652  
     459A      7.409472   460A      7.421146   461A      7.439838  
     462A      7.448843   463A      7.465929   464A      7.488025  
     465A      7.537937   466A      7.542998   467A      7.665956  
     468A      7.778097   469A      7.783718   470A      7.809597  
     471A      7.842889   472A      7.846275   473A      7.898723  
     474A      7.913692   475A      8.004476   476A      8.074226  
     477A      8.195735   478A      8.317023   479A      8.470320  
     480A      8.866300   481A      9.082690   482A      9.105977  
     483A      9.129365   484A      9.488864   485A      9.785432  
     486A      9.864750   487A      9.879659   488A      9.972244  
     489A     10.314916   490A     10.625891   491A     10.940425  
     492A     11.516970   493A     11.539693   494A     11.674564  
     495A     11.949376   496A     12.264296   497A     13.733168  
     498A     13.924983   499A     14.136565   500A     14.544395  
     501A     14.727520   502A     42.884174   503A     46.328064  
     504A     56.040012   505A     60.802765  

    Final Occupation by Irrep:
              A 
    DOCC [    20 ]

  @DF-RHF Final Energy:  -266.94934014624795

   => Energetics <=

    Nuclear Repulsion Energy =            178.6892307516320670
    One-Electron Energy =                -718.5776789993548164
    Two-Electron Energy =                 272.9391081014748011
    Total Energy =                       -266.9493401462479483

Computation Completed


Properties will be evaluated at   0.000000,   0.000000,   0.000000 [a0]

Properties computed using the SCF density matrix

  Nuclear Dipole Moment: [e a0]
     X:  -156.8684      Y:     6.6122      Z:    -0.0016

  Electronic Dipole Moment: [e a0]
     X:   156.5988      Y:    -5.8410      Z:     0.0063

  Dipole Moment: [e a0]
     X:    -0.2697      Y:     0.7712      Z:     0.0046     Total:     0.8170

  Dipole Moment: [D]
     X:    -0.6854      Y:     1.9602      Z:     0.0118     Total:     2.0766


*** tstop() called on r282 at Fri Sep 10 17:51:15 2021
Module time:
	user time   =      42.01 seconds =       0.70 minutes
	system time =       0.72 seconds =       0.01 minutes
	total time  =         43 seconds =       0.72 minutes
Total time:
	user time   =     114.80 seconds =       1.91 minutes
	system time =       2.24 seconds =       0.04 minutes
	total time  =        117 seconds =       1.95 minutes

  //>>>>>>>>>>>>>>>>>>>>>>>>>>>>>>>>>>>//
  //            Monomer B HF           //
  //<<<<<<<<<<<<<<<<<<<<<<<<<<<<<<<<<<<//


*** tstart() called on r282
*** at Fri Sep 10 17:51:15 2021

   => Loading Basis Set <=

    Name: JUN-CC-PVTZ
    Role: ORBITAL
    Keyword: BASIS
    atoms 1-3, 12-13  entry C          line   217 file /home/r08543048/miniconda3/share/psi4/basis/jun-cc-pvtz.gbs 
    atoms 4-5, 14     entry O          line   305 file /home/r08543048/miniconda3/share/psi4/basis/jun-cc-pvtz.gbs 
    atoms 6-11, 16-20 entry H          line    36 file /home/r08543048/miniconda3/share/psi4/basis/jun-cc-pvtz.gbs 
    atoms 15          entry N          line   261 file /home/r08543048/miniconda3/share/psi4/basis/jun-cc-pvtz.gbs 


         ---------------------------------------------------------
                                   SCF
               by Justin Turney, Rob Parrish, Andy Simmonett
                          and Daniel G. A. Smith
                              RHF Reference
                        1 Threads,  20980 MiB Core
         ---------------------------------------------------------

  ==> Geometry <==

    Molecular point group: c1
    Full point group: C1

    Geometry (in Angstrom), charge = 0, multiplicity = 1:

       Center              X                  Y                   Z               Mass       
    ------------   -----------------  -----------------  -----------------  -----------------
      Gh(C)          -3.823350679761    -0.779476536200     0.000337987445    12.000000000000
      Gh(C)          -2.996885679761     0.493812463800     0.005556987445    12.000000000000
      Gh(C)          -1.513785679761     0.234222463800    -0.000818012555    12.000000000000
      Gh(O)          -1.024754679761    -0.889302536200    -0.007411012555    15.994914619570
      Gh(O)          -0.807687679761     1.355962463800     0.001589987445    15.994914619570
      Gh(H)          -3.600818679761    -1.388935536200     0.873688987445     1.007825032230
      Gh(H)          -4.885713679761    -0.541748536200     0.005408987445     1.007825032230
      Gh(H)          -3.606758679761    -1.377891536200    -0.882105012555     1.007825032230
      Gh(H)          -3.210666679761     1.109980463800     0.880480987445     1.007825032230
      Gh(H)          -3.216496679761     1.121112463800    -0.859924012555     1.007825032230
      Gh(H)           0.172926320239     1.151869463800    -0.002307012555     1.007825032230
         C            3.951647320239    -0.078726536200     0.003177987445    12.000000000000
         C            2.446505320239    -0.069560536200     0.000073987445    12.000000000000
         O            1.828456320239     1.004341463800    -0.005614012555    15.994914619570
         N            1.823529320239    -1.258905536200     0.003516987445    14.003074004430
         H            4.371476320239    -1.081558536200     0.010038987445     1.007825032230
         H            4.300845320239     0.455361463800    -0.877897012555     1.007825032230
         H            4.297407320239     0.466094463800     0.878985987445     1.007825032230
         H            0.803438320239    -1.278708536200    -0.000261012555     1.007825032230
         H            2.350932320239    -2.111625536200     0.007334987445     1.007825032230

  Running in c1 symmetry.

  Rotational constants: A =      0.15081  B =      0.02017  C =      0.01797 [cm^-1]
  Rotational constants: A =   4521.31908  B =    604.79090  C =    538.71042 [MHz]
  Nuclear repulsion =  121.864265748290620

  Charge       = 0
  Multiplicity = 1
  Electrons    = 32
  Nalpha       = 16
  Nbeta        = 16

  ==> Algorithm <==

  SCF Algorithm Type is DF.
  DIIS enabled.
  MOM disabled.
  Fractional occupation disabled.
  Guess Type is SAD.
  Energy threshold   = 1.00e-08
  Density threshold  = 1.00e-08
  Integral threshold = 0.00e+00

  ==> Primary Basis <==

  Basis Set: JUN-CC-PVTZ
    Blend: JUN-CC-PVTZ
    Number of shells: 183
    Number of basis function: 505
    Number of Cartesian functions: 570
    Spherical Harmonics?: true
    Max angular momentum: 3

   => Loading Basis Set <=

    Name: (JUN-CC-PVTZ AUX)
    Role: JKFIT
    Keyword: DF_BASIS_SCF
    atoms 1-3, 12-13  entry C          line   152 file /home/r08543048/miniconda3/share/psi4/basis/jun-cc-pvtz-jkfit.gbs 
    atoms 4-5, 14     entry O          line   272 file /home/r08543048/miniconda3/share/psi4/basis/jun-cc-pvtz-jkfit.gbs 
    atoms 6-11, 16-20 entry H          line    70 file /home/r08543048/miniconda3/share/psi4/basis/jun-cc-pvtz-jkfit.gbs 
    atoms 15          entry N          line   212 file /home/r08543048/miniconda3/share/psi4/basis/jun-cc-pvtz-jkfit.gbs 

  ==> Pre-Iterations <==

   -------------------------------------------------------
    Irrep   Nso     Nmo     Nalpha   Nbeta   Ndocc  Nsocc
   -------------------------------------------------------
     A        505     505       0       0       0       0
   -------------------------------------------------------
    Total     505     505      16      16      16       0
   -------------------------------------------------------

  ==> Integral Setup <==

  ==> DiskDFJK: Density-Fitted J/K Matrices <==

    J tasked:                  Yes
    K tasked:                  Yes
    wK tasked:                  No
    OpenMP threads:              1
    Integrals threads:           1
    Memory [MiB]:            15735
    Algorithm:                Core
    Integral Cache:           LOAD
    Schwarz Cutoff:          1E-12
    Fitting Condition:       1E-10

   => Auxiliary Basis Set <=

  Basis Set: (JUN-CC-PVTZ AUX)
    Blend: JUN-CC-PVTZ-JKFIT
    Number of shells: 371
    Number of basis function: 1185
    Number of Cartesian functions: 1429
    Spherical Harmonics?: true
    Max angular momentum: 4

  Minimum eigenvalue in the overlap matrix is 3.2442861627E-05.
  Using Symmetric Orthogonalization.

  SCF Guess: Superposition of Atomic Densities via on-the-fly atomic UHF.

  ==> Iterations <==

                           Total Energy        Delta E     RMS |[F,P]|

   @DF-RHF iter SAD:  -207.24908043149711   -2.07249e+02   0.00000e+00 
   @DF-RHF iter   1:  -207.88424809662911   -6.35168e-01   1.20218e-03 DIIS
   @DF-RHF iter   2:  -208.01231129082285   -1.28063e-01   7.30631e-04 DIIS
   @DF-RHF iter   3:  -208.05719767959192   -4.48864e-02   1.36029e-04 DIIS
   @DF-RHF iter   4:  -208.05973958036915   -2.54190e-03   5.40195e-05 DIIS
   @DF-RHF iter   5:  -208.06024668206479   -5.07102e-04   1.00047e-05 DIIS
   @DF-RHF iter   6:  -208.06027712908528   -3.04470e-05   4.65750e-06 DIIS
   @DF-RHF iter   7:  -208.06028254049562   -5.41141e-06   1.76034e-06 DIIS
   @DF-RHF iter   8:  -208.06028370777494   -1.16728e-06   5.98812e-07 DIIS
   @DF-RHF iter   9:  -208.06028386579624   -1.58021e-07   1.59768e-07 DIIS
   @DF-RHF iter  10:  -208.06028387448092   -8.68468e-09   5.30154e-08 DIIS
   @DF-RHF iter  11:  -208.06028387533220   -8.51287e-10   1.35445e-08 DIIS
   @DF-RHF iter  12:  -208.06028387538453   -5.23244e-11   2.77378e-09 DIIS
  Energy and wave function converged.


  ==> Post-Iterations <==

    Orbital Energies [Eh]
    ---------------------

    Doubly Occupied:                                                      

       1A    -20.509971     2A    -15.594177     3A    -11.352612  
       4A    -11.238042     5A     -1.365974     6A     -1.218894  
       7A     -1.007194     8A     -0.804692     9A     -0.733000  
      10A     -0.662487    11A     -0.615866    12A     -0.576974  
      13A     -0.565341    14A     -0.524111    15A     -0.420769  
      16A     -0.412861  

    Virtual:                                                              

      17A      0.031993    18A      0.039285    19A      0.055401  
      20A      0.060088    21A      0.066439    22A      0.073422  
      23A      0.078378    24A      0.091736    25A      0.096042  
      26A      0.103546    27A      0.105006    28A      0.110885  
      29A      0.120535    30A      0.127658    31A      0.133846  
      32A      0.141964    33A      0.145321    34A      0.151078  
      35A      0.159880    36A      0.168998    37A      0.176459  
      38A      0.177999    39A      0.182084    40A      0.195222  
      41A      0.203062    42A      0.205528    43A      0.221230  
      44A      0.222785    45A      0.226090    46A      0.241655  
      47A      0.246926    48A      0.259918    49A      0.263161  
      50A      0.273629    51A      0.284239    52A      0.285551  
      53A      0.292624    54A      0.293663    55A      0.297079  
      56A      0.309809    57A      0.315736    58A      0.318031  
      59A      0.326477    60A      0.333802    61A      0.345520  
      62A      0.349357    63A      0.350247    64A      0.370357  
      65A      0.373067    66A      0.384559    67A      0.386632  
      68A      0.404197    69A      0.406217    70A      0.410423  
      71A      0.412190    72A      0.417294    73A      0.433899  
      74A      0.439773    75A      0.446858    76A      0.454090  
      77A      0.456104    78A      0.477183    79A      0.486107  
      80A      0.487513    81A      0.497464    82A      0.511101  
      83A      0.521253    84A      0.521743    85A      0.525154  
      86A      0.536377    87A      0.549180    88A      0.555608  
      89A      0.560377    90A      0.565343    91A      0.566562  
      92A      0.579755    93A      0.580970    94A      0.599140  
      95A      0.609111    96A      0.615103    97A      0.623355  
      98A      0.632596    99A      0.639878   100A      0.657696  
     101A      0.668914   102A      0.672573   103A      0.681090  
     104A      0.686673   105A      0.690421   106A      0.718295  
     107A      0.725455   108A      0.736882   109A      0.738450  
     110A      0.759112   111A      0.771736   112A      0.779147  
     113A      0.781397   114A      0.801845   115A      0.818070  
     116A      0.827827   117A      0.830299   118A      0.839773  
     119A      0.864176   120A      0.877609   121A      0.879796  
     122A      0.890921   123A      0.907705   124A      0.915946  
     125A      0.919933   126A      0.937405   127A      0.946723  
     128A      0.955955   129A      0.978299   130A      0.983372  
     131A      0.998925   132A      1.013635   133A      1.021936  
     134A      1.027805   135A      1.046861   136A      1.055165  
     137A      1.067596   138A      1.071790   139A      1.078599  
     140A      1.081232   141A      1.090481   142A      1.091888  
     143A      1.111622   144A      1.122404   145A      1.132707  
     146A      1.133674   147A      1.161258   148A      1.162223  
     149A      1.182796   150A      1.198652   151A      1.200967  
     152A      1.207402   153A      1.226810   154A      1.230430  
     155A      1.241033   156A      1.245974   157A      1.262051  
     158A      1.265441   159A      1.281669   160A      1.291109  
     161A      1.303306   162A      1.309961   163A      1.312969  
     164A      1.323535   165A      1.337424   166A      1.342591  
     167A      1.356729   168A      1.364048   169A      1.383113  
     170A      1.398276   171A      1.398574   172A      1.406122  
     173A      1.418108   174A      1.418120   175A      1.448568  
     176A      1.467256   177A      1.473877   178A      1.477812  
     179A      1.494205   180A      1.504522   181A      1.523674  
     182A      1.537021   183A      1.537579   184A      1.567248  
     185A      1.574579   186A      1.589922   187A      1.592263  
     188A      1.612885   189A      1.619642   190A      1.624823  
     191A      1.636453   192A      1.656665   193A      1.660038  
     194A      1.685004   195A      1.702939   196A      1.726917  
     197A      1.743003   198A      1.750318   199A      1.777809  
     200A      1.787223   201A      1.797877   202A      1.801452  
     203A      1.805097   204A      1.851557   205A      1.871936  
     206A      1.893677   207A      1.900936   208A      1.902978  
     209A      1.942774   210A      1.945736   211A      1.957978  
     212A      1.960951   213A      1.980066   214A      1.995516  
     215A      2.037794   216A      2.091797   217A      2.104630  
     218A      2.107004   219A      2.151730   220A      2.161206  
     221A      2.186281   222A      2.187716   223A      2.233770  
     224A      2.278833   225A      2.318346   226A      2.334845  
     227A      2.364212   228A      2.397904   229A      2.411265  
     230A      2.413636   231A      2.444662   232A      2.470402  
     233A      2.490000   234A      2.534716   235A      2.537141  
     236A      2.590984   237A      2.624809   238A      2.635305  
     239A      2.648798   240A      2.696179   241A      2.754928  
     242A      2.768717   243A      2.790080   244A      2.797987  
     245A      2.812824   246A      2.830405   247A      2.849541  
     248A      2.913002   249A      2.927705   250A      2.977498  
     251A      2.980661   252A      3.001572   253A      3.015218  
     254A      3.030252   255A      3.053356   256A      3.054658  
     257A      3.069731   258A      3.092325   259A      3.097724  
     260A      3.166271   261A      3.179492   262A      3.209162  
     263A      3.246959   264A      3.265542   265A      3.302750  
     266A      3.331588   267A      3.360723   268A      3.402377  
     269A      3.417889   270A      3.430794   271A      3.446529  
     272A      3.465617   273A      3.475434   274A      3.480576  
     275A      3.510625   276A      3.530025   277A      3.545511  
     278A      3.547029   279A      3.551907   280A      3.578005  
     281A      3.596871   282A      3.603503   283A      3.612167  
     284A      3.619022   285A      3.630817   286A      3.647651  
     287A      3.655013   288A      3.671701   289A      3.684290  
     290A      3.701830   291A      3.732796   292A      3.743303  
     293A      3.756564   294A      3.774815   295A      3.794151  
     296A      3.797169   297A      3.806449   298A      3.806646  
     299A      3.843113   300A      3.858898   301A      3.860422  
     302A      3.879739   303A      3.889211   304A      3.904419  
     305A      3.913288   306A      3.927613   307A      3.975723  
     308A      4.000372   309A      4.001510   310A      4.021866  
     311A      4.034007   312A      4.048570   313A      4.087686  
     314A      4.097704   315A      4.128947   316A      4.136390  
     317A      4.158140   318A      4.162789   319A      4.167302  
     320A      4.168706   321A      4.188934   322A      4.246097  
     323A      4.252667   324A      4.254698   325A      4.305312  
     326A      4.308628   327A      4.315653   328A      4.327118  
     329A      4.346080   330A      4.372807   331A      4.389612  
     332A      4.391750   333A      4.407372   334A      4.411056  
     335A      4.416104   336A      4.445881   337A      4.450229  
     338A      4.467578   339A      4.487590   340A      4.491041  
     341A      4.500108   342A      4.513358   343A      4.519296  
     344A      4.530189   345A      4.567682   346A      4.592066  
     347A      4.602781   348A      4.632051   349A      4.653865  
     350A      4.661651   351A      4.691718   352A      4.694742  
     353A      4.700925   354A      4.739913   355A      4.748322  
     356A      4.750033   357A      4.761875   358A      4.769034  
     359A      4.782005   360A      4.793240   361A      4.804054  
     362A      4.816518   363A      4.818040   364A      4.830380  
     365A      4.833207   366A      4.867289   367A      4.892227  
     368A      4.908580   369A      4.913688   370A      4.935555  
     371A      4.941840   372A      4.953154   373A      4.955137  
     374A      4.977522   375A      4.986563   376A      5.002860  
     377A      5.016752   378A      5.036744   379A      5.049910  
     380A      5.083597   381A      5.094159   382A      5.113981  
     383A      5.133650   384A      5.150037   385A      5.159761  
     386A      5.195036   387A      5.213146   388A      5.231508  
     389A      5.238141   390A      5.264447   391A      5.275241  
     392A      5.288103   393A      5.322333   394A      5.356680  
     395A      5.421108   396A      5.438735   397A      5.443780  
     398A      5.490076   399A      5.498898   400A      5.545400  
     401A      5.564702   402A      5.570038   403A      5.618541  
     404A      5.631019   405A      5.633113   406A      5.683976  
     407A      5.694944   408A      5.710786   409A      5.730119  
     410A      5.749631   411A      5.756187   412A      5.788315  
     413A      5.796167   414A      5.830101   415A      5.897270  
     416A      5.917513   417A      5.960860   418A      5.973031  
     419A      6.006886   420A      6.035170   421A      6.080520  
     422A      6.091962   423A      6.164792   424A      6.196105  
     425A      6.198433   426A      6.202426   427A      6.250719  
     428A      6.309986   429A      6.366484   430A      6.403336  
     431A      6.426782   432A      6.437532   433A      6.439775  
     434A      6.454490   435A      6.458040   436A      6.507856  
     437A      6.554878   438A      6.562359   439A      6.655810  
     440A      6.706582   441A      6.771515   442A      6.780203  
     443A      6.817931   444A      6.855943   445A      6.896954  
     446A      6.906351   447A      7.027566   448A      7.164408  
     449A      7.211379   450A      7.247263   451A      7.262433  
     452A      7.268225   453A      7.374991   454A      7.464611  
     455A      7.466370   456A      7.482616   457A      7.532573  
     458A      7.547343   459A      7.585540   460A      7.627159  
     461A      7.688797   462A      7.729342   463A      7.797446  
     464A      7.806764   465A      7.843205   466A      7.876967  
     467A      7.934998   468A      7.993622   469A      8.040690  
     470A      8.061816   471A      8.173877   472A      8.271755  
     473A      8.563134   474A      8.702166   475A      8.908035  
     476A      9.171437   477A      9.473865   478A      9.695503  
     479A      9.762323   480A      9.789354   481A      9.879284  
     482A      9.906602   483A      9.922259   484A      9.984912  
     485A      9.990288   486A     10.167673   487A     10.422622  
     488A     10.551629   489A     11.054153   490A     11.423424  
     491A     11.578127   492A     11.635869   493A     12.033679  
     494A     12.271490   495A     13.151498   496A     13.779751  
     497A     13.957336   498A     14.073618   499A     14.863241  
     500A     15.990584   501A     43.300229   502A     45.099040  
     503A     45.834342   504A     61.083216   505A     61.992234  

    Final Occupation by Irrep:
              A 
    DOCC [    16 ]

  @DF-RHF Final Energy:  -208.06028387538453

   => Energetics <=

    Nuclear Repulsion Energy =            121.8642657482906202
    One-Electron Energy =                -524.6431690863556696
    Two-Electron Energy =                 194.7186194626805218
    Total Energy =                       -208.0602838753845276

Computation Completed


Properties will be evaluated at   0.000000,   0.000000,   0.000000 [a0]

Properties computed using the SCF density matrix

  Nuclear Dipole Moment: [e a0]
     X:   154.7787      Y:    -9.8601      Z:     0.0329

  Electronic Dipole Moment: [e a0]
     X:  -154.1471      Y:     8.2271      Z:    -0.0266

  Dipole Moment: [e a0]
     X:     0.6316      Y:    -1.6330      Z:     0.0063     Total:     1.7509

  Dipole Moment: [D]
     X:     1.6054      Y:    -4.1507      Z:     0.0161     Total:     4.4504


*** tstop() called on r282 at Fri Sep 10 17:51:54 2021
Module time:
	user time   =      38.72 seconds =       0.65 minutes
	system time =       0.69 seconds =       0.01 minutes
	total time  =         39 seconds =       0.65 minutes
Total time:
	user time   =     153.52 seconds =       2.56 minutes
	system time =       2.93 seconds =       0.05 minutes
	total time  =        156 seconds =       2.60 minutes
  Constructing Basis Sets for SAPT...

   => Loading Basis Set <=

    Name: (JUN-CC-PVTZ AUX)
    Role: RIFIT
    Keyword: DF_BASIS_SAPT
    atoms 1-3, 12-13  entry C          line   132 file /home/r08543048/miniconda3/share/psi4/basis/jun-cc-pvtz-ri.gbs 
    atoms 4-5, 14     entry O          line   244 file /home/r08543048/miniconda3/share/psi4/basis/jun-cc-pvtz-ri.gbs 
    atoms 6-11, 16-20 entry H          line    30 file /home/r08543048/miniconda3/share/psi4/basis/jun-cc-pvtz-ri.gbs 
    atoms 15          entry N          line   188 file /home/r08543048/miniconda3/share/psi4/basis/jun-cc-pvtz-ri.gbs 


  //>>>>>>>>>>>>>>>>>>>>>>>>>>>>>>>>>>>//
  //               SAPT0               //
  //<<<<<<<<<<<<<<<<<<<<<<<<<<<<<<<<<<<//


*** tstart() called on r282
*** at Fri Sep 10 17:51:54 2021

        SAPT0  
    Ed Hohenstein
     6 June 2009

      Orbital Information
  --------------------------
    NSO        =       505
    NMO        =       505
    NRI        =      1203
    NOCC A     =        20
    NOCC B     =        16
    FOCC A     =         0
    FOCC B     =         0
    NVIR A     =       485
    NVIR B     =       489

    Elst10,r            =    -0.048799155320 [Eh]
    Exch10              =     0.047161874090 [Eh]
    Exch10 (S^2)        =     0.046421788147 [Eh]

    Iter     Energy [mEh]          dE [mEh]         Residual      Time [s]
       1      -8.87949334       8.879493343      19.474908231             1
       2     -10.20592852       1.326435177      10.583534708             2
       3     -10.95127621       0.745347686       2.583901455             3
       4     -10.87231145      -0.078964753       1.018952540             4
       5     -10.86024225      -0.012069208       0.292534441             5
       6     -10.86934358       0.009101340       0.097759479             6
       7     -10.86971330       0.000369714       0.027736300             7
       8     -10.86905931      -0.000653993       0.008728398             8
       9     -10.86900192      -0.000057388       0.002822383             9
      10     -10.86905206       0.000050140       0.000729392            10
      11     -10.86905427       0.000002210       0.000151523            11
      12     -10.86905194      -0.000002330       0.000045976            12
      13     -10.86905173      -0.000000212       0.000014007            13
      14     -10.86905198       0.000000253       0.000004760            14
      15     -10.86905192      -0.000000054       0.000001895            16
      16     -10.86905192       0.000000000       0.000000425            17

    CHF Iterations converged


    Iter     Energy [mEh]          dE [mEh]         Residual      Time [s]
       1     -12.02800530      12.028005296      24.822119368             1
       2     -14.23964143       2.211636133      14.080875860             2
       3     -15.42041931       1.180777884       3.417735342             3
       4     -15.31141826      -0.109001055       1.356470925             4
       5     -15.28938190      -0.022036357       0.390533295             5
       6     -15.30247414       0.013092235       0.143991035             6
       7     -15.30428764       0.001813502       0.035279041             7
       8     -15.30339112      -0.000896518       0.011056442             8
       9     -15.30327831      -0.000112815       0.003043694             9
      10     -15.30333297       0.000054661       0.000703769            10
      11     -15.30333850       0.000005532       0.000156561            11
      12     -15.30333632      -0.000002181       0.000045626            12
      13     -15.30333578      -0.000000535       0.000013119            13
      14     -15.30333607       0.000000286       0.000003643            14
      15     -15.30333602      -0.000000052       0.000001387            15
      16     -15.30333602       0.000000004       0.000000404            16

    CHF Iterations converged

    Ind20,r (A<-B)      =    -0.010869051925 [Eh]
    Ind20,r (B<-A)      =    -0.015303336019 [Eh]
    Ind20,r             =    -0.026172387944 [Eh]
    Exch-Ind20,r (A<-B) =     0.006149931628 [Eh]
    Exch-Ind20,r (B<-A) =     0.007507919565 [Eh]
    Exch-Ind20,r        =     0.013657851193 [Eh]
    Disp20              =    -0.015478298743 [Eh]
    Disp20 (SS)         =    -0.007739149371 [Eh]
    Disp20 (OS)         =    -0.007739149371 [Eh]
    Exch-Disp20         =     0.003089855368 [Eh]
    Exch-Disp20 (SS)    =     0.001941812847 [Eh]
    Exch-Disp20 (OS)    =     0.001148042521 [Eh]

    SAPT Results 
  --------------------------------------------------------------------------------------------------------
    Electrostatics                -48.79915532 [mEh]     -30.62193228 [kcal/mol]    -128.12216464 [kJ/mol]
      Elst10,r                    -48.79915532 [mEh]     -30.62193228 [kcal/mol]    -128.12216464 [kJ/mol]

    Exchange                       47.16187409 [mEh]      29.59452279 [kcal/mol]     123.82348337 [kJ/mol]
      Exch10                       47.16187409 [mEh]      29.59452279 [kcal/mol]     123.82348337 [kJ/mol]
      Exch10(S^2)                  46.42178815 [mEh]      29.13011185 [kcal/mol]     121.88038799 [kJ/mol]

    Induction                     -21.97838079 [mEh]     -13.79164216 [kcal/mol]     -57.70423082 [kJ/mol]
      Ind20,r                     -26.17238794 [mEh]     -16.42342139 [kcal/mol]     -68.71559508 [kJ/mol]
      Exch-Ind20,r                 13.65785119 [mEh]       8.57043101 [kcal/mol]      35.85868337 [kJ/mol]
      delta HF,r (2)               -9.46384404 [mEh]      -5.93865179 [kcal/mol]     -24.84731910 [kJ/mol]

    Dispersion                    -12.38844337 [mEh]      -7.77386558 [kcal/mol]     -32.52585360 [kJ/mol]
      Disp20                      -15.47829874 [mEh]      -9.71277910 [kcal/mol]     -40.63826775 [kJ/mol]
      Exch-Disp20                   3.08985537 [mEh]       1.93891352 [kcal/mol]       8.11241415 [kJ/mol]
      Disp20 (SS)                  -7.73914937 [mEh]      -4.85638955 [kcal/mol]     -20.31913388 [kJ/mol]
      Disp20 (OS)                  -7.73914937 [mEh]      -4.85638955 [kcal/mol]     -20.31913388 [kJ/mol]
      Exch-Disp20 (SS)              1.94181285 [mEh]       1.21850596 [kcal/mol]       5.09822893 [kJ/mol]
      Exch-Disp20 (OS)              1.14804252 [mEh]       0.72040756 [kcal/mol]       3.01418522 [kJ/mol]

  Total HF                        -23.61566202 [mEh]     -14.81905165 [kcal/mol]     -62.00291209 [kJ/mol]
  Total SAPT0                     -36.00410540 [mEh]     -22.59291723 [kcal/mol]     -94.52876569 [kJ/mol]

  Special recipe for scaled SAPT0 (see Manual):
    Electrostatics sSAPT0         -48.79915532 [mEh]     -30.62193228 [kcal/mol]    -128.12216464 [kJ/mol]
    Exchange sSAPT0                47.16187409 [mEh]      29.59452279 [kcal/mol]     123.82348337 [kJ/mol]
    Induction sSAPT0              -21.31468460 [mEh]     -13.37516652 [kcal/mol]     -55.96169670 [kJ/mol]
    Dispersion sSAPT0             -12.23829346 [mEh]      -7.67964509 [kcal/mol]     -32.13163504 [kJ/mol]
  Total sSAPT0                    -35.19025928 [mEh]     -22.08222109 [kcal/mol]     -92.39201302 [kJ/mol]
  --------------------------------------------------------------------------------------------------------

*** tstop() called on r282 at Fri Sep 10 17:54:11 2021
Module time:
	user time   =     115.21 seconds =       1.92 minutes
	system time =      19.94 seconds =       0.33 minutes
	total time  =        137 seconds =       2.28 minutes
Total time:
	user time   =     268.86 seconds =       4.48 minutes
	system time =      22.87 seconds =       0.38 minutes
	total time  =        293 seconds =       4.88 minutes

    Psi4 stopped on: Friday, 10 September 2021 05:54PM
    Psi4 wall time for execution: 0:04:53.60

*** Psi4 exiting successfully. Buy a developer a beer!
