
    -----------------------------------------------------------------------
          Psi4: An Open-Source Ab Initio Electronic Structure Package
                               Psi4 1.3.2 release

                         Git: Rev {HEAD} ecbda83 


    R. M. Parrish, L. A. Burns, D. G. A. Smith, A. C. Simmonett,
    A. E. DePrince III, E. G. Hohenstein, U. Bozkaya, A. Yu. Sokolov,
    R. Di Remigio, R. M. Richard, J. F. Gonthier, A. M. James,
    H. R. McAlexander, A. Kumar, M. Saitow, X. Wang, B. P. Pritchard,
    P. Verma, H. F. Schaefer III, K. Patkowski, R. A. King, E. F. Valeev,
    F. A. Evangelista, J. M. Turney, T. D. Crawford, and C. D. Sherrill,
    J. Chem. Theory Comput. 13(7) pp 3185--3197 (2017).
    (doi: 10.1021/acs.jctc.7b00174)


                         Additional Contributions by
    P. Kraus, H. Kruse, M. H. Lechner, M. C. Schieber, R. A. Shaw,
    A. Alenaizan, R. Galvelis, Z. L. Glick, S. Lehtola, and J. P. Misiewicz

    -----------------------------------------------------------------------


    Psi4 started on: Friday, 10 September 2021 06:16PM

    Process ID: 56959
    Host:       r282
    PSIDATADIR: /home/r08543048/miniconda3/share/psi4
    Memory:     500.0 MiB
    Threads:    1
    
  ==> Input File <==

--------------------------------------------------------------------------
# Any line starting with the # character is a comment line
#! Sample  computation

memory 22 gb

molecule Dimer {
0 1
 C -4.212789   -0.985846   -0.000052
 C -3.502876    0.355930   -0.000296
 C -2.002436    0.229531   -0.000083
 O -1.416290   -0.846939   -0.000267
 O -1.398925    1.408782    0.000173
 H -3.940451   -1.567643    0.878037
 H -5.292115   -0.843577   -0.000269
 H -3.940151   -1.568115   -0.877732
 H -3.774361    0.956158    0.869675
 H -3.774107    0.955662   -0.870697
 H -0.402425    1.293567   -0.000003

    
    
 --
0 1
 C  3.469438    0.434573    0.000646
 C  1.965046    0.283578   -0.000248
 O  1.250097    1.297591   -0.000800
 N  1.452111   -0.955384   -0.000282
 H  0.437171   -1.062490   -0.000556
 H  2.050478   -1.759884    0.000476
 C  4.290471   -0.846785    0.000933
 H  5.353118   -0.611538    0.001462
 H  4.091632   -1.450656    0.886596
 H  4.092449   -1.450508   -0.885010
 H  3.707390    1.047806   -0.869365
 H  3.706410    1.047543    0.871116
 
 
 
 
 
 
units angstrom

no_reorient
symmetry c1
}

set globals{
  basis jun-cc-pvtz
}

energy('sapt0')


--------------------------------------------------------------------------

  Memory set to  20.489 GiB by Python driver.

  //>>>>>>>>>>>>>>>>>>>>>>>>>>>>>>>>>>>//
  //              Dimer HF             //
  //<<<<<<<<<<<<<<<<<<<<<<<<<<<<<<<<<<<//


*** tstart() called on r282
*** at Fri Sep 10 18:16:00 2021

   => Loading Basis Set <=

    Name: JUN-CC-PVTZ
    Role: ORBITAL
    Keyword: BASIS
    atoms 1-3, 12-13, 18     entry C          line   217 file /home/r08543048/miniconda3/share/psi4/basis/jun-cc-pvtz.gbs 
    atoms 4-5, 14            entry O          line   305 file /home/r08543048/miniconda3/share/psi4/basis/jun-cc-pvtz.gbs 
    atoms 6-11, 16-17, 19-23 entry H          line    36 file /home/r08543048/miniconda3/share/psi4/basis/jun-cc-pvtz.gbs 
    atoms 15                 entry N          line   261 file /home/r08543048/miniconda3/share/psi4/basis/jun-cc-pvtz.gbs 


         ---------------------------------------------------------
                                   SCF
               by Justin Turney, Rob Parrish, Andy Simmonett
                          and Daniel G. A. Smith
                              RHF Reference
                        1 Threads,  20980 MiB Core
         ---------------------------------------------------------

  ==> Geometry <==

    Molecular point group: c1
    Full point group: C1

    Geometry (in Angstrom), charge = 0, multiplicity = 1:

       Center              X                  Y                   Z               Mass       
    ------------   -----------------  -----------------  -----------------  -----------------
         C           -4.197257578215    -1.019580825310    -0.000026919134    12.000000000000
         C           -3.487344578215     0.322195174690    -0.000270919134    12.000000000000
         C           -1.986904578215     0.195796174690    -0.000057919134    12.000000000000
         O           -1.400758578215    -0.880673825310    -0.000241919134    15.994914619570
         O           -1.383393578215     1.375047174690     0.000198080866    15.994914619570
         H           -3.924919578215    -1.601377825310     0.878062080866     1.007825032230
         H           -5.276583578215    -0.877311825310    -0.000243919134     1.007825032230
         H           -3.924619578215    -1.601849825310    -0.877706919134     1.007825032230
         H           -3.758829578215     0.922423174690     0.869700080866     1.007825032230
         H           -3.758575578215     0.921927174690    -0.870671919134     1.007825032230
         H           -0.386893578215     1.259832174690     0.000022080866     1.007825032230
         C            3.484969421785     0.400838174690     0.000671080866    12.000000000000
         C            1.980577421785     0.249843174690    -0.000222919134    12.000000000000
         O            1.265628421785     1.263856174690    -0.000774919134    15.994914619570
         N            1.467642421785    -0.989118825310    -0.000256919134    14.003074004430
         H            0.452702421785    -1.096224825310    -0.000530919134     1.007825032230
         H            2.066009421785    -1.793618825310     0.000501080866     1.007825032230
         C            4.306002421785    -0.880519825310     0.000958080866    12.000000000000
         H            5.368649421785    -0.645272825310     0.001487080866     1.007825032230
         H            4.107163421785    -1.484390825310     0.886621080866     1.007825032230
         H            4.107980421785    -1.484242825310    -0.884984919134     1.007825032230
         H            3.722921421785     1.014071174690    -0.869339919134     1.007825032230
         H            3.721941421785     1.013808174690     0.871141080866     1.007825032230

  Running in c1 symmetry.

  Rotational constants: A =      0.12498  B =      0.01495  C =      0.01349 [cm^-1]
  Rotational constants: A =   3746.70664  B =    448.33673  C =    404.38685 [MHz]
  Nuclear repulsion =  537.838358954909040

  Charge       = 0
  Multiplicity = 1
  Electrons    = 80
  Nalpha       = 40
  Nbeta        = 40

  ==> Algorithm <==

  SCF Algorithm Type is DF.
  DIIS enabled.
  MOM disabled.
  Fractional occupation disabled.
  Guess Type is SAD.
  Energy threshold   = 1.00e-08
  Density threshold  = 1.00e-08
  Integral threshold = 0.00e+00

  ==> Primary Basis <==

  Basis Set: JUN-CC-PVTZ
    Blend: JUN-CC-PVTZ
    Number of shells: 208
    Number of basis function: 572
    Number of Cartesian functions: 645
    Spherical Harmonics?: true
    Max angular momentum: 3

   => Loading Basis Set <=

    Name: (JUN-CC-PVTZ AUX)
    Role: JKFIT
    Keyword: DF_BASIS_SCF
    atoms 1-3, 12-13, 18     entry C          line   152 file /home/r08543048/miniconda3/share/psi4/basis/jun-cc-pvtz-jkfit.gbs 
    atoms 4-5, 14            entry O          line   272 file /home/r08543048/miniconda3/share/psi4/basis/jun-cc-pvtz-jkfit.gbs 
    atoms 6-11, 16-17, 19-23 entry H          line    70 file /home/r08543048/miniconda3/share/psi4/basis/jun-cc-pvtz-jkfit.gbs 
    atoms 15                 entry N          line   212 file /home/r08543048/miniconda3/share/psi4/basis/jun-cc-pvtz-jkfit.gbs 

  ==> Pre-Iterations <==

   -------------------------------------------------------
    Irrep   Nso     Nmo     Nalpha   Nbeta   Ndocc  Nsocc
   -------------------------------------------------------
     A        572     572       0       0       0       0
   -------------------------------------------------------
    Total     572     572      40      40      40       0
   -------------------------------------------------------

  ==> Integral Setup <==

  ==> DiskDFJK: Density-Fitted J/K Matrices <==

    J tasked:                  Yes
    K tasked:                  Yes
    wK tasked:                  No
    OpenMP threads:              1
    Integrals threads:           1
    Memory [MiB]:            15735
    Algorithm:                Core
    Integral Cache:           SAVE
    Schwarz Cutoff:          1E-12
    Fitting Condition:       1E-10

   => Auxiliary Basis Set <=

  Basis Set: (JUN-CC-PVTZ AUX)
    Blend: JUN-CC-PVTZ-JKFIT
    Number of shells: 420
    Number of basis function: 1340
    Number of Cartesian functions: 1615
    Spherical Harmonics?: true
    Max angular momentum: 4

  Minimum eigenvalue in the overlap matrix is 2.7458660717E-05.
  Using Symmetric Orthogonalization.

  SCF Guess: Superposition of Atomic Densities via on-the-fly atomic UHF.

  ==> Iterations <==

                           Total Energy        Delta E     RMS |[F,P]|

   @DF-RHF iter SAD:  -512.66373900061990   -5.12664e+02   0.00000e+00 
   @DF-RHF iter   1:  -513.70441271156892   -1.04067e+00   1.53762e-03 DIIS
   @DF-RHF iter   2:  -513.99733200483934   -2.92919e-01   8.13451e-04 DIIS
   @DF-RHF iter   3:  -514.07320351276053   -7.58715e-02   1.52935e-04 DIIS
   @DF-RHF iter   4:  -514.07808076128117   -4.87725e-03   7.10365e-05 DIIS
   @DF-RHF iter   5:  -514.07900987236030   -9.29111e-04   1.34737e-05 DIIS
   @DF-RHF iter   6:  -514.07907284322300   -6.29709e-05   6.33984e-06 DIIS
   @DF-RHF iter   7:  -514.07908321479022   -1.03716e-05   2.16083e-06 DIIS
   @DF-RHF iter   8:  -514.07908555261656   -2.33783e-06   8.57705e-07 DIIS
   @DF-RHF iter   9:  -514.07908593796139   -3.85345e-07   2.94266e-07 DIIS
   @DF-RHF iter  10:  -514.07908597352798   -3.55666e-08   9.88410e-08 DIIS
   @DF-RHF iter  11:  -514.07908597656058   -3.03260e-09   3.44673e-08 DIIS
   @DF-RHF iter  12:  -514.07908597681183   -2.51248e-10   1.25407e-08 DIIS
   @DF-RHF iter  13:  -514.07908597685162   -3.97904e-11   3.25344e-09 DIIS
  Energy and wave function converged.


  ==> Post-Iterations <==

    Orbital Energies [Eh]
    ---------------------

    Doubly Occupied:                                                      

       1A    -20.576946     2A    -20.536068     3A    -20.526132  
       4A    -15.581469     5A    -11.374165     6A    -11.361500  
       7A    -11.246999     8A    -11.238941     9A    -11.235027  
      10A    -11.213654    11A     -1.441516    12A     -1.384522  
      13A     -1.339614    14A     -1.217790    15A     -1.064184  
      16A     -1.055335    17A     -0.912800    18A     -0.900814  
      19A     -0.799684    20A     -0.779391    21A     -0.743265  
      22A     -0.704846    23A     -0.671845    24A     -0.651067  
      25A     -0.650628    26A     -0.646753    27A     -0.605006  
      28A     -0.577602    29A     -0.570008    30A     -0.566541  
      31A     -0.562422    32A     -0.530177    33A     -0.521107  
      34A     -0.514556    35A     -0.507120    36A     -0.494271  
      37A     -0.465747    38A     -0.450015    39A     -0.426962  
      40A     -0.418759  

    Virtual:                                                              

      41A      0.041244    42A      0.052576    43A      0.058236  
      44A      0.065740    45A      0.068379    46A      0.068629  
      47A      0.078542    48A      0.091391    49A      0.097596  
      50A      0.102348    51A      0.103492    52A      0.109906  
      53A      0.111933    54A      0.113554    55A      0.122083  
      56A      0.128681    57A      0.141465    58A      0.150819  
      59A      0.157726    60A      0.163537    61A      0.173105  
      62A      0.183713    63A      0.184804    64A      0.192827  
      65A      0.197036    66A      0.202537    67A      0.206041  
      68A      0.218592    69A      0.223705    70A      0.231181  
      71A      0.234073    72A      0.245045    73A      0.250035  
      74A      0.255060    75A      0.264559    76A      0.268746  
      77A      0.271944    78A      0.276888    79A      0.290463  
      80A      0.294640    81A      0.299404    82A      0.302643  
      83A      0.303178    84A      0.303222    85A      0.312435  
      86A      0.320348    87A      0.321288    88A      0.328646  
      89A      0.329615    90A      0.333139    91A      0.346986  
      92A      0.351734    93A      0.352702    94A      0.358075  
      95A      0.370275    96A      0.372266    97A      0.377701  
      98A      0.383028    99A      0.391253   100A      0.401721  
     101A      0.414866   102A      0.418077   103A      0.421520  
     104A      0.426361   105A      0.432469   106A      0.443891  
     107A      0.454813   108A      0.457237   109A      0.462683  
     110A      0.470669   111A      0.474914   112A      0.486398  
     113A      0.503235   114A      0.505519   115A      0.509222  
     116A      0.517497   117A      0.526066   118A      0.531127  
     119A      0.536840   120A      0.543661   121A      0.550851  
     122A      0.556197   123A      0.569545   124A      0.572358  
     125A      0.577864   126A      0.581467   127A      0.583323  
     128A      0.600205   129A      0.610164   130A      0.619655  
     131A      0.620721   132A      0.626865   133A      0.636463  
     134A      0.641353   135A      0.655285   136A      0.673095  
     137A      0.681710   138A      0.697578   139A      0.703816  
     140A      0.711807   141A      0.715636   142A      0.717466  
     143A      0.720036   144A      0.733017   145A      0.753742  
     146A      0.754677   147A      0.759478   148A      0.769679  
     149A      0.771493   150A      0.772252   151A      0.774913  
     152A      0.785644   153A      0.796057   154A      0.801023  
     155A      0.813199   156A      0.820863   157A      0.829914  
     158A      0.832717   159A      0.837327   160A      0.858354  
     161A      0.862491   162A      0.864425   163A      0.866390  
     164A      0.888654   165A      0.889095   166A      0.902877  
     167A      0.905846   168A      0.907741   169A      0.919076  
     170A      0.921327   171A      0.930913   172A      0.945445  
     173A      0.955076   174A      0.967714   175A      0.969492  
     176A      0.987390   177A      0.997508   178A      1.010777  
     179A      1.027725   180A      1.036565   181A      1.047413  
     182A      1.059461   183A      1.061296   184A      1.062480  
     185A      1.068294   186A      1.086877   187A      1.100227  
     188A      1.100577   189A      1.120803   190A      1.133048  
     191A      1.133998   192A      1.140498   193A      1.145240  
     194A      1.155082   195A      1.190579   196A      1.196120  
     197A      1.224250   198A      1.230178   199A      1.252017  
     200A      1.259045   201A      1.274999   202A      1.280279  
     203A      1.285217   204A      1.290571   205A      1.321219  
     206A      1.323196   207A      1.332407   208A      1.336360  
     209A      1.346102   210A      1.363056   211A      1.364076  
     212A      1.378819   213A      1.382419   214A      1.386077  
     215A      1.387671   216A      1.419217   217A      1.421629  
     218A      1.425710   219A      1.432634   220A      1.440731  
     221A      1.444177   222A      1.447888   223A      1.457364  
     224A      1.460214   225A      1.470784   226A      1.481042  
     227A      1.487122   228A      1.497473   229A      1.500279  
     230A      1.518072   231A      1.523345   232A      1.533386  
     233A      1.550808   234A      1.563703   235A      1.571730  
     236A      1.572339   237A      1.580852   238A      1.587823  
     239A      1.602026   240A      1.604527   241A      1.623489  
     242A      1.627182   243A      1.657905   244A      1.663939  
     245A      1.668880   246A      1.683224   247A      1.686848  
     248A      1.712646   249A      1.719710   250A      1.743829  
     251A      1.755993   252A      1.764963   253A      1.795210  
     254A      1.798988   255A      1.801182   256A      1.827774  
     257A      1.835942   258A      1.839978   259A      1.857306  
     260A      1.873073   261A      1.887026   262A      1.909827  
     263A      1.912291   264A      1.923265   265A      1.934836  
     266A      1.947608   267A      1.967861   268A      1.995331  
     269A      1.997811   270A      2.036962   271A      2.067631  
     272A      2.107253   273A      2.169119   274A      2.216931  
     275A      2.237909   276A      2.248797   277A      2.291602  
     278A      2.325064   279A      2.340368   280A      2.350079  
     281A      2.388758   282A      2.407624   283A      2.451938  
     284A      2.460086   285A      2.464450   286A      2.472683  
     287A      2.505196   288A      2.591760   289A      2.626466  
     290A      2.651391   291A      2.682651   292A      2.707380  
     293A      2.746302   294A      2.774370   295A      2.792260  
     296A      2.806137   297A      2.823101   298A      2.828619  
     299A      2.851267   300A      2.859718   301A      2.870140  
     302A      2.899967   303A      2.925456   304A      2.939725  
     305A      2.948349   306A      2.964428   307A      2.988813  
     308A      3.007149   309A      3.022494   310A      3.031595  
     311A      3.041015   312A      3.041769   313A      3.071780  
     314A      3.092444   315A      3.095159   316A      3.113342  
     317A      3.119245   318A      3.123308   319A      3.137144  
     320A      3.137474   321A      3.165378   322A      3.185535  
     323A      3.202269   324A      3.226724   325A      3.232716  
     326A      3.236564   327A      3.247896   328A      3.259025  
     329A      3.301328   330A      3.310418   331A      3.331996  
     332A      3.335654   333A      3.347834   334A      3.356429  
     335A      3.363584   336A      3.369705   337A      3.390355  
     338A      3.392182   339A      3.406120   340A      3.414726  
     341A      3.434636   342A      3.461484   343A      3.463933  
     344A      3.470782   345A      3.477170   346A      3.486919  
     347A      3.493053   348A      3.500892   349A      3.501611  
     350A      3.503817   351A      3.513865   352A      3.525936  
     353A      3.530711   354A      3.535697   355A      3.541508  
     356A      3.547715   357A      3.563970   358A      3.579060  
     359A      3.583510   360A      3.592126   361A      3.609886  
     362A      3.621489   363A      3.628178   364A      3.646964  
     365A      3.647540   366A      3.660818   367A      3.679987  
     368A      3.681797   369A      3.685206   370A      3.693550  
     371A      3.703937   372A      3.730724   373A      3.753493  
     374A      3.769866   375A      3.772737   376A      3.798210  
     377A      3.809338   378A      3.814243   379A      3.838818  
     380A      3.854326   381A      3.866328   382A      3.886265  
     383A      3.887908   384A      3.891541   385A      3.893911  
     386A      3.909718   387A      3.921836   388A      3.929146  
     389A      3.963711   390A      3.985254   391A      3.986745  
     392A      3.997705   393A      4.009579   394A      4.052820  
     395A      4.058708   396A      4.077437   397A      4.084735  
     398A      4.116469   399A      4.129147   400A      4.131592  
     401A      4.170617   402A      4.183475   403A      4.190463  
     404A      4.224661   405A      4.228312   406A      4.235808  
     407A      4.248982   408A      4.249541   409A      4.260241  
     410A      4.261487   411A      4.284612   412A      4.307167  
     413A      4.310978   414A      4.319112   415A      4.323001  
     416A      4.352971   417A      4.362416   418A      4.366704  
     419A      4.375703   420A      4.385258   421A      4.401026  
     422A      4.405410   423A      4.431071   424A      4.435736  
     425A      4.436621   426A      4.445069   427A      4.454218  
     428A      4.465109   429A      4.480179   430A      4.488838  
     431A      4.494421   432A      4.506185   433A      4.538231  
     434A      4.556908   435A      4.569768   436A      4.584226  
     437A      4.605945   438A      4.616219   439A      4.620233  
     440A      4.631283   441A      4.644496   442A      4.655536  
     443A      4.670100   444A      4.672468   445A      4.689127  
     446A      4.702940   447A      4.714186   448A      4.724375  
     449A      4.725428   450A      4.752253   451A      4.773426  
     452A      4.783529   453A      4.812149   454A      4.820719  
     455A      4.844995   456A      4.868686   457A      4.892294  
     458A      4.896843   459A      4.918120   460A      4.929257  
     461A      4.937715   462A      4.964153   463A      4.982839  
     464A      4.992207   465A      5.079207   466A      5.095119  
     467A      5.109699   468A      5.141571   469A      5.148952  
     470A      5.208653   471A      5.209127   472A      5.237872  
     473A      5.240344   474A      5.258339   475A      5.271326  
     476A      5.280635   477A      5.283959   478A      5.293589  
     479A      5.324399   480A      5.326803   481A      5.339431  
     482A      5.349099   483A      5.380535   484A      5.416626  
     485A      5.424652   486A      5.445411   487A      5.465079  
     488A      5.498047   489A      5.532842   490A      5.549601  
     491A      5.580732   492A      5.606399   493A      5.623798  
     494A      5.637943   495A      5.644377   496A      5.659144  
     497A      5.661992   498A      5.727987   499A      5.735274  
     500A      5.741249   501A      5.745816   502A      5.750884  
     503A      5.752719   504A      5.768342   505A      5.819688  
     506A      5.830387   507A      5.843475   508A      5.886475  
     509A      5.887966   510A      5.899781   511A      5.899941  
     512A      5.913670   513A      5.930750   514A      5.964224  
     515A      5.998471   516A      6.016379   517A      6.029319  
     518A      6.052300   519A      6.062709   520A      6.088483  
     521A      6.108372   522A      6.222776   523A      6.229328  
     524A      6.259781   525A      6.313161   526A      6.444670  
     527A      6.469638   528A      6.487627   529A      6.510970  
     530A      6.516837   531A      6.533983   532A      6.536257  
     533A      6.585632   534A      6.683815   535A      6.722856  
     536A      6.731832   537A      6.759214   538A      6.793119  
     539A      6.888498   540A      6.935253   541A      6.965215  
     542A      7.118143   543A      7.200538   544A      7.250742  
     545A      7.279784   546A      7.315787   547A      7.338744  
     548A      7.379893   549A      7.414740   550A      7.423830  
     551A      7.457195   552A      7.461824   553A      7.513646  
     554A      7.542310   555A      7.547097   556A      7.734024  
     557A      7.779802   558A      7.872587   559A      7.888600  
     560A      8.013329   561A      8.085069   562A      8.417401  
     563A     12.222209   564A     12.533249   565A     13.798455  
     566A     13.952807   567A     14.146367   568A     14.356226  
     569A     14.558411   570A     14.724820   571A     14.742843  
     572A     16.248614  

    Final Occupation by Irrep:
              A 
    DOCC [    40 ]

  @DF-RHF Final Energy:  -514.07908597685162

   => Energetics <=

    Nuclear Repulsion Energy =            537.8383589549090402
    One-Electron Energy =               -1769.7043972535743706
    Two-Electron Energy =                 717.7869523218138283
    Total Energy =                       -514.0790859768516157

Computation Completed


Properties will be evaluated at   0.000000,   0.000000,   0.000000 [a0]

Properties computed using the SCF density matrix

  Nuclear Dipole Moment: [e a0]
     X:     2.3480      Y:    -5.1000      Z:     0.0038

  Electronic Dipole Moment: [e a0]
     X:    -1.5294      Y:     4.2614      Z:    -0.0028

  Dipole Moment: [e a0]
     X:     0.8186      Y:    -0.8386      Z:     0.0010     Total:     1.1719

  Dipole Moment: [D]
     X:     2.0808      Y:    -2.1314      Z:     0.0024     Total:     2.9787


*** tstop() called on r282 at Fri Sep 10 18:17:49 2021
Module time:
	user time   =     107.15 seconds =       1.79 minutes
	system time =       2.12 seconds =       0.04 minutes
	total time  =        109 seconds =       1.82 minutes
Total time:
	user time   =     107.15 seconds =       1.79 minutes
	system time =       2.12 seconds =       0.04 minutes
	total time  =        109 seconds =       1.82 minutes

  //>>>>>>>>>>>>>>>>>>>>>>>>>>>>>>>>>>>//
  //            Monomer A HF           //
  //<<<<<<<<<<<<<<<<<<<<<<<<<<<<<<<<<<<//


*** tstart() called on r282
*** at Fri Sep 10 18:17:49 2021

   => Loading Basis Set <=

    Name: JUN-CC-PVTZ
    Role: ORBITAL
    Keyword: BASIS
    atoms 1-3, 12-13, 18     entry C          line   217 file /home/r08543048/miniconda3/share/psi4/basis/jun-cc-pvtz.gbs 
    atoms 4-5, 14            entry O          line   305 file /home/r08543048/miniconda3/share/psi4/basis/jun-cc-pvtz.gbs 
    atoms 6-11, 16-17, 19-23 entry H          line    36 file /home/r08543048/miniconda3/share/psi4/basis/jun-cc-pvtz.gbs 
    atoms 15                 entry N          line   261 file /home/r08543048/miniconda3/share/psi4/basis/jun-cc-pvtz.gbs 


         ---------------------------------------------------------
                                   SCF
               by Justin Turney, Rob Parrish, Andy Simmonett
                          and Daniel G. A. Smith
                              RHF Reference
                        1 Threads,  20980 MiB Core
         ---------------------------------------------------------

  ==> Geometry <==

    Molecular point group: c1
    Full point group: C1

    Geometry (in Angstrom), charge = 0, multiplicity = 1:

       Center              X                  Y                   Z               Mass       
    ------------   -----------------  -----------------  -----------------  -----------------
         C           -4.197257578215    -1.019580825310    -0.000026919134    12.000000000000
         C           -3.487344578215     0.322195174690    -0.000270919134    12.000000000000
         C           -1.986904578215     0.195796174690    -0.000057919134    12.000000000000
         O           -1.400758578215    -0.880673825310    -0.000241919134    15.994914619570
         O           -1.383393578215     1.375047174690     0.000198080866    15.994914619570
         H           -3.924919578215    -1.601377825310     0.878062080866     1.007825032230
         H           -5.276583578215    -0.877311825310    -0.000243919134     1.007825032230
         H           -3.924619578215    -1.601849825310    -0.877706919134     1.007825032230
         H           -3.758829578215     0.922423174690     0.869700080866     1.007825032230
         H           -3.758575578215     0.921927174690    -0.870671919134     1.007825032230
         H           -0.386893578215     1.259832174690     0.000022080866     1.007825032230
      Gh(C)           3.484969421785     0.400838174690     0.000671080866    12.000000000000
      Gh(C)           1.980577421785     0.249843174690    -0.000222919134    12.000000000000
      Gh(O)           1.265628421785     1.263856174690    -0.000774919134    15.994914619570
      Gh(N)           1.467642421785    -0.989118825310    -0.000256919134    14.003074004430
      Gh(H)           0.452702421785    -1.096224825310    -0.000530919134     1.007825032230
      Gh(H)           2.066009421785    -1.793618825310     0.000501080866     1.007825032230
      Gh(C)           4.306002421785    -0.880519825310     0.000958080866    12.000000000000
      Gh(H)           5.368649421785    -0.645272825310     0.001487080866     1.007825032230
      Gh(H)           4.107163421785    -1.484390825310     0.886621080866     1.007825032230
      Gh(H)           4.107980421785    -1.484242825310    -0.884984919134     1.007825032230
      Gh(H)           3.722921421785     1.014071174690    -0.869339919134     1.007825032230
      Gh(H)           3.721941421785     1.013808174690     0.871141080866     1.007825032230

  Running in c1 symmetry.

  Rotational constants: A =      0.12498  B =      0.01495  C =      0.01349 [cm^-1]
  Rotational constants: A =   3746.70664  B =    448.33673  C =    404.38685 [MHz]
  Nuclear repulsion =  178.689386091737930

  Charge       = 0
  Multiplicity = 1
  Electrons    = 40
  Nalpha       = 20
  Nbeta        = 20

  ==> Algorithm <==

  SCF Algorithm Type is DF.
  DIIS enabled.
  MOM disabled.
  Fractional occupation disabled.
  Guess Type is SAD.
  Energy threshold   = 1.00e-08
  Density threshold  = 1.00e-08
  Integral threshold = 0.00e+00

  ==> Primary Basis <==

  Basis Set: JUN-CC-PVTZ
    Blend: JUN-CC-PVTZ
    Number of shells: 208
    Number of basis function: 572
    Number of Cartesian functions: 645
    Spherical Harmonics?: true
    Max angular momentum: 3

   => Loading Basis Set <=

    Name: (JUN-CC-PVTZ AUX)
    Role: JKFIT
    Keyword: DF_BASIS_SCF
    atoms 1-3, 12-13, 18     entry C          line   152 file /home/r08543048/miniconda3/share/psi4/basis/jun-cc-pvtz-jkfit.gbs 
    atoms 4-5, 14            entry O          line   272 file /home/r08543048/miniconda3/share/psi4/basis/jun-cc-pvtz-jkfit.gbs 
    atoms 6-11, 16-17, 19-23 entry H          line    70 file /home/r08543048/miniconda3/share/psi4/basis/jun-cc-pvtz-jkfit.gbs 
    atoms 15                 entry N          line   212 file /home/r08543048/miniconda3/share/psi4/basis/jun-cc-pvtz-jkfit.gbs 

  ==> Pre-Iterations <==

   -------------------------------------------------------
    Irrep   Nso     Nmo     Nalpha   Nbeta   Ndocc  Nsocc
   -------------------------------------------------------
     A        572     572       0       0       0       0
   -------------------------------------------------------
    Total     572     572      20      20      20       0
   -------------------------------------------------------

  ==> Integral Setup <==

  ==> DiskDFJK: Density-Fitted J/K Matrices <==

    J tasked:                  Yes
    K tasked:                  Yes
    wK tasked:                  No
    OpenMP threads:              1
    Integrals threads:           1
    Memory [MiB]:            15735
    Algorithm:                Core
    Integral Cache:           LOAD
    Schwarz Cutoff:          1E-12
    Fitting Condition:       1E-10

   => Auxiliary Basis Set <=

  Basis Set: (JUN-CC-PVTZ AUX)
    Blend: JUN-CC-PVTZ-JKFIT
    Number of shells: 420
    Number of basis function: 1340
    Number of Cartesian functions: 1615
    Spherical Harmonics?: true
    Max angular momentum: 4

  Minimum eigenvalue in the overlap matrix is 2.7458660717E-05.
  Using Symmetric Orthogonalization.

  SCF Guess: Superposition of Atomic Densities via on-the-fly atomic UHF.

  ==> Iterations <==

                           Total Energy        Delta E     RMS |[F,P]|

   @DF-RHF iter SAD:  -266.05649128015023   -2.66056e+02   0.00000e+00 
   @DF-RHF iter   1:  -266.74557339127750   -6.89082e-01   1.14035e-03 DIIS
   @DF-RHF iter   2:  -266.89402097623531   -1.48448e-01   6.79629e-04 DIIS
   @DF-RHF iter   3:  -266.94555120956500   -5.15302e-02   1.22293e-04 DIIS
   @DF-RHF iter   4:  -266.94843188195870   -2.88067e-03   5.74982e-05 DIIS
   @DF-RHF iter   5:  -266.94907813509644   -6.46253e-04   1.12619e-05 DIIS
   @DF-RHF iter   6:  -266.94912285018358   -4.47151e-05   5.40443e-06 DIIS
   @DF-RHF iter   7:  -266.94913164606970   -8.79589e-06   1.98167e-06 DIIS
   @DF-RHF iter   8:  -266.94913350512115   -1.85905e-06   7.15961e-07 DIIS
   @DF-RHF iter   9:  -266.94913377460762   -2.69486e-07   1.68161e-07 DIIS
   @DF-RHF iter  10:  -266.94913378836441   -1.37568e-08   5.17049e-08 DIIS
   @DF-RHF iter  11:  -266.94913378918579   -8.21387e-10   1.35594e-08 DIIS
   @DF-RHF iter  12:  -266.94913378925315   -6.73595e-11   3.12898e-09 DIIS
  Energy and wave function converged.


  ==> Post-Iterations <==

    Orbital Energies [Eh]
    ---------------------

    Doubly Occupied:                                                      

       1A    -20.623193     2A    -20.543730     3A    -11.385320  
       4A    -11.246583     5A    -11.220109     6A     -1.466774  
       7A     -1.352581     8A     -1.065340     9A     -0.916230  
      10A     -0.802807    11A     -0.701497    12A     -0.688926  
      13A     -0.663178    14A     -0.595767    15A     -0.590000  
      16A     -0.533502    17A     -0.522839    18A     -0.504006  
      19A     -0.476724    20A     -0.449221  

    Virtual:                                                              

      21A      0.030127    22A      0.046214    23A      0.049949  
      24A      0.060911    25A      0.063099    26A      0.063276  
      27A      0.075040    28A      0.084904    29A      0.090233  
      30A      0.096586    31A      0.101986    32A      0.107749  
      33A      0.109246    34A      0.109936    35A      0.116413  
      36A      0.124889    37A      0.138187    38A      0.141208  
      39A      0.144493    40A      0.147313    41A      0.168976  
      42A      0.169684    43A      0.172491    44A      0.173671  
      45A      0.183415    46A      0.192447    47A      0.193232  
      48A      0.199116    49A      0.205413    50A      0.210789  
      51A      0.220927    52A      0.232847    53A      0.233753  
      54A      0.243416    55A      0.247773    56A      0.256433  
      57A      0.262849    58A      0.277633    59A      0.285058  
      60A      0.291761    61A      0.292515    62A      0.302246  
      63A      0.303475    64A      0.308464    65A      0.311695  
      66A      0.313127    67A      0.323791    68A      0.336569  
      69A      0.337926    70A      0.339592    71A      0.347979  
      72A      0.356569    73A      0.361176    74A      0.364421  
      75A      0.383575    76A      0.385158    77A      0.388833  
      78A      0.393892    79A      0.400876    80A      0.406384  
      81A      0.410669    82A      0.411777    83A      0.428504  
      84A      0.429736    85A      0.431875    86A      0.436158  
      87A      0.444845    88A      0.445973    89A      0.448804  
      90A      0.472838    91A      0.473298    92A      0.487418  
      93A      0.494534    94A      0.499259    95A      0.508577  
      96A      0.512429    97A      0.517857    98A      0.529414  
      99A      0.532953   100A      0.542498   101A      0.549502  
     102A      0.555308   103A      0.559453   104A      0.562719  
     105A      0.573657   106A      0.583757   107A      0.583899  
     108A      0.615873   109A      0.620146   110A      0.628452  
     111A      0.637480   112A      0.637675   113A      0.642466  
     114A      0.648693   115A      0.649621   116A      0.668897  
     117A      0.690527   118A      0.700358   119A      0.700582  
     120A      0.702844   121A      0.704667   122A      0.718921  
     123A      0.733513   124A      0.739414   125A      0.748071  
     126A      0.752003   127A      0.762593   128A      0.776056  
     129A      0.777469   130A      0.790076   131A      0.792556  
     132A      0.808967   133A      0.821255   134A      0.828066  
     135A      0.838561   136A      0.842044   137A      0.849243  
     138A      0.860359   139A      0.866410   140A      0.873459  
     141A      0.879890   142A      0.880966   143A      0.890915  
     144A      0.896376   145A      0.908574   146A      0.911300  
     147A      0.930539   148A      0.943547   149A      0.955637  
     150A      0.968747   151A      0.986020   152A      0.999915  
     153A      1.009849   154A      1.015994   155A      1.025876  
     156A      1.030564   157A      1.046681   158A      1.054265  
     159A      1.057777   160A      1.068951   161A      1.080554  
     162A      1.095873   163A      1.109000   164A      1.120836  
     165A      1.129144   166A      1.130759   167A      1.148341  
     168A      1.158196   169A      1.163383   170A      1.195318  
     171A      1.201354   172A      1.205999   173A      1.219429  
     174A      1.228231   175A      1.240472   176A      1.243170  
     177A      1.249605   178A      1.261639   179A      1.271504  
     180A      1.280302   181A      1.297263   182A      1.299123  
     183A      1.307053   184A      1.317021   185A      1.327535  
     186A      1.347743   187A      1.352267   188A      1.364373  
     189A      1.364605   190A      1.380137   191A      1.386338  
     192A      1.419318   193A      1.422483   194A      1.425485  
     195A      1.428358   196A      1.437348   197A      1.448977  
     198A      1.449740   199A      1.457243   200A      1.473022  
     201A      1.489043   202A      1.490145   203A      1.494080  
     204A      1.500271   205A      1.510784   206A      1.536605  
     207A      1.540197   208A      1.549980   209A      1.554851  
     210A      1.564199   211A      1.579945   212A      1.584950  
     213A      1.596177   214A      1.601352   215A      1.608277  
     216A      1.616300   217A      1.621061   218A      1.625459  
     219A      1.642756   220A      1.664198   221A      1.673154  
     222A      1.681570   223A      1.701529   224A      1.711275  
     225A      1.748951   226A      1.761271   227A      1.770004  
     228A      1.777007   229A      1.778088   230A      1.787825  
     231A      1.797433   232A      1.813125   233A      1.826213  
     234A      1.853840   235A      1.874416   236A      1.886600  
     237A      1.889726   238A      1.900640   239A      1.904091  
     240A      1.920855   241A      1.937068   242A      1.945401  
     243A      1.959708   244A      1.982765   245A      2.015716  
     246A      2.035237   247A      2.045832   248A      2.107350  
     249A      2.119664   250A      2.142079   251A      2.148490  
     252A      2.159613   253A      2.184858   254A      2.221093  
     255A      2.223830   256A      2.260921   257A      2.294186  
     258A      2.308203   259A      2.342358   260A      2.357007  
     261A      2.382180   262A      2.401977   263A      2.406659  
     264A      2.434934   265A      2.445509   266A      2.479185  
     267A      2.491563   268A      2.512649   269A      2.525562  
     270A      2.577271   271A      2.592937   272A      2.603302  
     273A      2.638762   274A      2.653295   275A      2.679801  
     276A      2.690342   277A      2.755112   278A      2.767899  
     279A      2.785422   280A      2.790301   281A      2.835971  
     282A      2.843335   283A      2.846796   284A      2.872308  
     285A      2.889779   286A      2.896464   287A      2.940952  
     288A      2.956942   289A      2.966622   290A      2.992574  
     291A      3.019166   292A      3.028844   293A      3.031812  
     294A      3.051791   295A      3.101401   296A      3.115522  
     297A      3.131242   298A      3.134200   299A      3.165639  
     300A      3.233482   301A      3.240032   302A      3.264807  
     303A      3.303556   304A      3.309371   305A      3.346421  
     306A      3.350177   307A      3.368355   308A      3.384578  
     309A      3.425080   310A      3.431534   311A      3.453518  
     312A      3.478299   313A      3.487915   314A      3.488976  
     315A      3.513866   316A      3.516072   317A      3.523090  
     318A      3.536627   319A      3.555197   320A      3.560858  
     321A      3.595893   322A      3.598732   323A      3.604287  
     324A      3.612618   325A      3.619419   326A      3.649444  
     327A      3.664473   328A      3.675531   329A      3.684503  
     330A      3.695986   331A      3.705025   332A      3.714013  
     333A      3.734631   334A      3.760410   335A      3.780351  
     336A      3.782244   337A      3.784866   338A      3.799734  
     339A      3.805558   340A      3.820747   341A      3.838254  
     342A      3.847009   343A      3.867724   344A      3.875528  
     345A      3.880028   346A      3.882438   347A      3.902400  
     348A      3.905405   349A      3.908436   350A      3.908499  
     351A      3.931870   352A      3.973512   353A      3.999035  
     354A      4.008235   355A      4.035477   356A      4.065210  
     357A      4.070298   358A      4.084586   359A      4.089095  
     360A      4.115008   361A      4.146257   362A      4.160242  
     363A      4.161039   364A      4.208916   365A      4.215661  
     366A      4.218873   367A      4.228966   368A      4.239409  
     369A      4.246944   370A      4.275519   371A      4.280613  
     372A      4.295283   373A      4.311021   374A      4.326647  
     375A      4.349061   376A      4.350745   377A      4.353628  
     378A      4.362952   379A      4.405100   380A      4.413902  
     381A      4.428616   382A      4.439791   383A      4.463137  
     384A      4.478508   385A      4.479798   386A      4.486059  
     387A      4.495223   388A      4.506030   389A      4.506259  
     390A      4.534439   391A      4.552922   392A      4.566291  
     393A      4.601807   394A      4.603201   395A      4.611539  
     396A      4.625746   397A      4.634190   398A      4.657958  
     399A      4.667778   400A      4.676233   401A      4.688033  
     402A      4.691813   403A      4.706642   404A      4.709269  
     405A      4.711145   406A      4.713320   407A      4.736078  
     408A      4.743354   409A      4.765853   410A      4.789187  
     411A      4.790464   412A      4.803792   413A      4.807175  
     414A      4.822823   415A      4.823103   416A      4.845847  
     417A      4.856432   418A      4.875106   419A      4.886210  
     420A      4.892901   421A      4.901031   422A      4.916659  
     423A      4.927766   424A      4.935648   425A      4.938185  
     426A      4.952808   427A      4.963878   428A      4.985918  
     429A      4.996954   430A      5.002359   431A      5.007784  
     432A      5.010505   433A      5.035354   434A      5.044108  
     435A      5.059682   436A      5.093498   437A      5.131672  
     438A      5.147988   439A      5.150222   440A      5.168487  
     441A      5.187410   442A      5.221608   443A      5.243453  
     444A      5.245003   445A      5.262202   446A      5.274972  
     447A      5.279872   448A      5.305802   449A      5.315692  
     450A      5.318532   451A      5.331087   452A      5.344356  
     453A      5.391142   454A      5.455825   455A      5.459863  
     456A      5.483437   457A      5.507994   458A      5.544420  
     459A      5.570938   460A      5.597425   461A      5.618644  
     462A      5.643582   463A      5.655705   464A      5.665130  
     465A      5.720354   466A      5.731935   467A      5.740007  
     468A      5.741810   469A      5.800369   470A      5.813898  
     471A      5.837284   472A      5.843256   473A      5.885771  
     474A      5.892650   475A      5.906793   476A      5.910584  
     477A      5.924054   478A      5.999480   479A      6.031075  
     480A      6.038366   481A      6.043452   482A      6.067127  
     483A      6.087467   484A      6.181626   485A      6.219124  
     486A      6.228120   487A      6.230595   488A      6.297868  
     489A      6.357816   490A      6.360778   491A      6.375490  
     492A      6.410972   493A      6.442628   494A      6.442749  
     495A      6.448701   496A      6.481302   497A      6.501546  
     498A      6.504911   499A      6.529656   500A      6.564619  
     501A      6.578849   502A      6.597139   503A      6.715656  
     504A      6.739108   505A      6.739428   506A      6.796536  
     507A      6.830238   508A      6.882133   509A      6.888551  
     510A      6.903620   511A      6.945684   512A      7.015577  
     513A      7.084254   514A      7.148380   515A      7.193382  
     516A      7.286993   517A      7.318823   518A      7.328342  
     519A      7.382148   520A      7.411811   521A      7.420178  
     522A      7.440146   523A      7.446438   524A      7.466728  
     525A      7.481955   526A      7.535532   527A      7.554190  
     528A      7.650622   529A      7.690687   530A      7.703304  
     531A      7.771614   532A      7.779414   533A      7.814495  
     534A      7.821711   535A      7.844711   536A      7.900889  
     537A      7.972354   538A      8.002947   539A      8.051961  
     540A      8.164055   541A      8.199229   542A      8.283312  
     543A      8.333521   544A      8.528512   545A      8.942435  
     546A      9.115979   547A      9.131730   548A      9.237691  
     549A      9.516774   550A      9.678980   551A      9.789339  
     552A      9.896177   553A      9.956645   554A     10.005597  
     555A     10.341775   556A     10.710077   557A     10.994216  
     558A     11.558821   559A     11.560995   560A     11.752565  
     561A     11.976976   562A     12.291829   563A     13.756848  
     564A     13.950242   565A     14.136981   566A     14.551602  
     567A     14.731280   568A     42.980861   569A     45.245019  
     570A     45.844440   571A     56.475836   572A     61.259667  

    Final Occupation by Irrep:
              A 
    DOCC [    20 ]

  @DF-RHF Final Energy:  -266.94913378925315

   => Energetics <=

    Nuclear Repulsion Energy =            178.6893860917379300
    One-Electron Energy =                -718.5803892260478278
    Two-Electron Energy =                 272.9418693450567730
    Total Energy =                       -266.9491337892531533

Computation Completed


Properties will be evaluated at   0.000000,   0.000000,   0.000000 [a0]

Properties computed using the SCF density matrix

  Nuclear Dipole Moment: [e a0]
     X:  -191.4910      Y:    -0.0584      Z:    -0.0063

  Electronic Dipole Moment: [e a0]
     X:   191.1568      Y:     0.8061      Z:     0.0062

  Dipole Moment: [e a0]
     X:    -0.3342      Y:     0.7477      Z:    -0.0001     Total:     0.8190

  Dipole Moment: [D]
     X:    -0.8494      Y:     1.9005      Z:    -0.0002     Total:     2.0816


*** tstop() called on r282 at Fri Sep 10 18:18:56 2021
Module time:
	user time   =      65.60 seconds =       1.09 minutes
	system time =       0.93 seconds =       0.02 minutes
	total time  =         67 seconds =       1.12 minutes
Total time:
	user time   =     172.75 seconds =       2.88 minutes
	system time =       3.05 seconds =       0.05 minutes
	total time  =        176 seconds =       2.93 minutes

  //>>>>>>>>>>>>>>>>>>>>>>>>>>>>>>>>>>>//
  //            Monomer B HF           //
  //<<<<<<<<<<<<<<<<<<<<<<<<<<<<<<<<<<<//


*** tstart() called on r282
*** at Fri Sep 10 18:18:56 2021

   => Loading Basis Set <=

    Name: JUN-CC-PVTZ
    Role: ORBITAL
    Keyword: BASIS
    atoms 1-3, 12-13, 18     entry C          line   217 file /home/r08543048/miniconda3/share/psi4/basis/jun-cc-pvtz.gbs 
    atoms 4-5, 14            entry O          line   305 file /home/r08543048/miniconda3/share/psi4/basis/jun-cc-pvtz.gbs 
    atoms 6-11, 16-17, 19-23 entry H          line    36 file /home/r08543048/miniconda3/share/psi4/basis/jun-cc-pvtz.gbs 
    atoms 15                 entry N          line   261 file /home/r08543048/miniconda3/share/psi4/basis/jun-cc-pvtz.gbs 


         ---------------------------------------------------------
                                   SCF
               by Justin Turney, Rob Parrish, Andy Simmonett
                          and Daniel G. A. Smith
                              RHF Reference
                        1 Threads,  20980 MiB Core
         ---------------------------------------------------------

  ==> Geometry <==

    Molecular point group: c1
    Full point group: C1

    Geometry (in Angstrom), charge = 0, multiplicity = 1:

       Center              X                  Y                   Z               Mass       
    ------------   -----------------  -----------------  -----------------  -----------------
      Gh(C)          -4.197257578215    -1.019580825310    -0.000026919134    12.000000000000
      Gh(C)          -3.487344578215     0.322195174690    -0.000270919134    12.000000000000
      Gh(C)          -1.986904578215     0.195796174690    -0.000057919134    12.000000000000
      Gh(O)          -1.400758578215    -0.880673825310    -0.000241919134    15.994914619570
      Gh(O)          -1.383393578215     1.375047174690     0.000198080866    15.994914619570
      Gh(H)          -3.924919578215    -1.601377825310     0.878062080866     1.007825032230
      Gh(H)          -5.276583578215    -0.877311825310    -0.000243919134     1.007825032230
      Gh(H)          -3.924619578215    -1.601849825310    -0.877706919134     1.007825032230
      Gh(H)          -3.758829578215     0.922423174690     0.869700080866     1.007825032230
      Gh(H)          -3.758575578215     0.921927174690    -0.870671919134     1.007825032230
      Gh(H)          -0.386893578215     1.259832174690     0.000022080866     1.007825032230
         C            3.484969421785     0.400838174690     0.000671080866    12.000000000000
         C            1.980577421785     0.249843174690    -0.000222919134    12.000000000000
         O            1.265628421785     1.263856174690    -0.000774919134    15.994914619570
         N            1.467642421785    -0.989118825310    -0.000256919134    14.003074004430
         H            0.452702421785    -1.096224825310    -0.000530919134     1.007825032230
         H            2.066009421785    -1.793618825310     0.000501080866     1.007825032230
         C            4.306002421785    -0.880519825310     0.000958080866    12.000000000000
         H            5.368649421785    -0.645272825310     0.001487080866     1.007825032230
         H            4.107163421785    -1.484390825310     0.886621080866     1.007825032230
         H            4.107980421785    -1.484242825310    -0.884984919134     1.007825032230
         H            3.722921421785     1.014071174690    -0.869339919134     1.007825032230
         H            3.721941421785     1.013808174690     0.871141080866     1.007825032230

  Running in c1 symmetry.

  Rotational constants: A =      0.12498  B =      0.01495  C =      0.01349 [cm^-1]
  Rotational constants: A =   3746.70664  B =    448.33673  C =    404.38685 [MHz]
  Nuclear repulsion =  179.287474601519250

  Charge       = 0
  Multiplicity = 1
  Electrons    = 40
  Nalpha       = 20
  Nbeta        = 20

  ==> Algorithm <==

  SCF Algorithm Type is DF.
  DIIS enabled.
  MOM disabled.
  Fractional occupation disabled.
  Guess Type is SAD.
  Energy threshold   = 1.00e-08
  Density threshold  = 1.00e-08
  Integral threshold = 0.00e+00

  ==> Primary Basis <==

  Basis Set: JUN-CC-PVTZ
    Blend: JUN-CC-PVTZ
    Number of shells: 208
    Number of basis function: 572
    Number of Cartesian functions: 645
    Spherical Harmonics?: true
    Max angular momentum: 3

   => Loading Basis Set <=

    Name: (JUN-CC-PVTZ AUX)
    Role: JKFIT
    Keyword: DF_BASIS_SCF
    atoms 1-3, 12-13, 18     entry C          line   152 file /home/r08543048/miniconda3/share/psi4/basis/jun-cc-pvtz-jkfit.gbs 
    atoms 4-5, 14            entry O          line   272 file /home/r08543048/miniconda3/share/psi4/basis/jun-cc-pvtz-jkfit.gbs 
    atoms 6-11, 16-17, 19-23 entry H          line    70 file /home/r08543048/miniconda3/share/psi4/basis/jun-cc-pvtz-jkfit.gbs 
    atoms 15                 entry N          line   212 file /home/r08543048/miniconda3/share/psi4/basis/jun-cc-pvtz-jkfit.gbs 

  ==> Pre-Iterations <==

   -------------------------------------------------------
    Irrep   Nso     Nmo     Nalpha   Nbeta   Ndocc  Nsocc
   -------------------------------------------------------
     A        572     572       0       0       0       0
   -------------------------------------------------------
    Total     572     572      20      20      20       0
   -------------------------------------------------------

  ==> Integral Setup <==

  ==> DiskDFJK: Density-Fitted J/K Matrices <==

    J tasked:                  Yes
    K tasked:                  Yes
    wK tasked:                  No
    OpenMP threads:              1
    Integrals threads:           1
    Memory [MiB]:            15735
    Algorithm:                Core
    Integral Cache:           LOAD
    Schwarz Cutoff:          1E-12
    Fitting Condition:       1E-10

   => Auxiliary Basis Set <=

  Basis Set: (JUN-CC-PVTZ AUX)
    Blend: JUN-CC-PVTZ-JKFIT
    Number of shells: 420
    Number of basis function: 1340
    Number of Cartesian functions: 1615
    Spherical Harmonics?: true
    Max angular momentum: 4

  Minimum eigenvalue in the overlap matrix is 2.7458660717E-05.
  Using Symmetric Orthogonalization.

  SCF Guess: Superposition of Atomic Densities via on-the-fly atomic UHF.

  ==> Iterations <==

                           Total Energy        Delta E     RMS |[F,P]|

   @DF-RHF iter SAD:  -246.34158665380230   -2.46342e+02   0.00000e+00 
   @DF-RHF iter   1:  -246.89252544739196   -5.50939e-01   1.13773e-03 DIIS
   @DF-RHF iter   2:  -247.05411863992242   -1.61593e-01   6.52688e-04 DIIS
   @DF-RHF iter   3:  -247.10219581551507   -4.80772e-02   1.26459e-04 DIIS
   @DF-RHF iter   4:  -247.10515922439674   -2.96341e-03   5.61138e-05 DIIS
   @DF-RHF iter   5:  -247.10579333930929   -6.34115e-04   9.47067e-06 DIIS
   @DF-RHF iter   6:  -247.10583121135170   -3.78720e-05   3.87722e-06 DIIS
   @DF-RHF iter   7:  -247.10583618750036   -4.97615e-06   1.61849e-06 DIIS
   @DF-RHF iter   8:  -247.10583739907503   -1.21157e-06   6.04614e-07 DIIS
   @DF-RHF iter   9:  -247.10583760426084   -2.05186e-07   1.35322e-07 DIIS
   @DF-RHF iter  10:  -247.10583761432213   -1.00613e-08   3.62881e-08 DIIS
   @DF-RHF iter  11:  -247.10583761483974   -5.17616e-10   1.05955e-08 DIIS
   @DF-RHF iter  12:  -247.10583761488107   -4.13252e-11   3.04772e-09 DIIS
  Energy and wave function converged.


  ==> Post-Iterations <==

    Orbital Energies [Eh]
    ---------------------

    Doubly Occupied:                                                      

       1A    -20.505748     2A    -15.591259     3A    -11.347848  
       4A    -11.241144     5A    -11.236545     6A     -1.362179  
       7A     -1.217251     8A     -1.059593     9A     -0.903988  
      10A     -0.795408    11A     -0.738162    12A     -0.644815  
      13A     -0.644719    14A     -0.595056    15A     -0.558655  
      16A     -0.551560    17A     -0.524913    18A     -0.502833  
      19A     -0.413729    20A     -0.408565  

    Virtual:                                                              

      21A      0.032399    22A      0.039889    23A      0.056043  
      24A      0.060195    25A      0.060567    26A      0.065279  
      27A      0.072992    28A      0.080931    29A      0.094913  
      30A      0.101404    31A      0.102078    32A      0.108504  
      33A      0.108660    34A      0.111043    35A      0.118401  
      36A      0.120545    37A      0.140256    38A      0.142254  
      39A      0.148326    40A      0.154962    41A      0.163891  
      42A      0.165784    43A      0.169236    44A      0.180725  
      45A      0.188283    46A      0.192620    47A      0.200080  
      48A      0.210397    49A      0.214280    50A      0.219582  
      51A      0.227347    52A      0.227483    53A      0.240518  
      54A      0.247884    55A      0.251471    56A      0.253386  
      57A      0.262579    58A      0.265423    59A      0.276274  
      60A      0.291230    61A      0.293645    62A      0.298960  
      63A      0.300634    64A      0.301820    65A      0.311549  
      66A      0.313942    67A      0.315072    68A      0.333860  
      69A      0.338507    70A      0.347833    71A      0.350946  
      72A      0.357313    73A      0.360205    74A      0.362571  
      75A      0.381696    76A      0.384177    77A      0.388218  
      78A      0.389277    79A      0.395008    80A      0.400976  
      81A      0.412244    82A      0.415069    83A      0.428033  
      84A      0.432230    85A      0.435892    86A      0.447899  
      87A      0.458431    88A      0.459268    89A      0.466551  
      90A      0.476568    91A      0.479893    92A      0.487897  
      93A      0.491768    94A      0.504813    95A      0.507231  
      96A      0.518682    97A      0.525794    98A      0.526913  
      99A      0.537187   100A      0.538102   101A      0.547724  
     102A      0.557154   103A      0.563278   104A      0.565177  
     105A      0.571639   106A      0.575783   107A      0.582950  
     108A      0.583660   109A      0.604197   110A      0.612184  
     111A      0.621297   112A      0.623655   113A      0.626794  
     114A      0.638586   115A      0.650176   116A      0.661640  
     117A      0.679842   118A      0.690195   119A      0.694620  
     120A      0.696060   121A      0.708195   122A      0.712458  
     123A      0.723997   124A      0.738854   125A      0.755924  
     126A      0.764611   127A      0.772082   128A      0.779571  
     129A      0.782952   130A      0.790582   131A      0.801868  
     132A      0.802616   133A      0.817091   134A      0.829204  
     135A      0.836895   136A      0.854466   137A      0.865848  
     138A      0.878417   139A      0.879877   140A      0.895030  
     141A      0.911326   142A      0.917026   143A      0.920385  
     144A      0.924577   145A      0.929360   146A      0.931946  
     147A      0.957507   148A      0.964427   149A      0.976254  
     150A      0.987667   151A      0.997080   152A      1.009658  
     153A      1.024277   154A      1.030050   155A      1.042197  
     156A      1.046363   157A      1.059757   158A      1.067832  
     159A      1.080988   160A      1.086081   161A      1.087185  
     162A      1.091545   163A      1.095418   164A      1.098714  
     165A      1.124196   166A      1.128612   167A      1.128877  
     168A      1.137143   169A      1.145143   170A      1.168371  
     171A      1.171479   172A      1.191283   173A      1.204442  
     174A      1.225812   175A      1.232163   176A      1.235871  
     177A      1.238197   178A      1.252310   179A      1.256719  
     180A      1.273429   181A      1.276966   182A      1.293900  
     183A      1.294729   184A      1.311115   185A      1.322886  
     186A      1.325455   187A      1.329583   188A      1.339166  
     189A      1.344372   190A      1.351054   191A      1.356776  
     192A      1.379975   193A      1.381531   194A      1.385445  
     195A      1.395775   196A      1.409798   197A      1.425756  
     198A      1.432758   199A      1.444206   200A      1.448284  
     201A      1.454916   202A      1.474986   203A      1.490346  
     204A      1.495142   205A      1.499814   206A      1.520619  
     207A      1.525257   208A      1.528970   209A      1.541605  
     210A      1.554299   211A      1.566743   212A      1.577286  
     213A      1.582677   214A      1.593756   215A      1.601762  
     216A      1.610843   217A      1.620677   218A      1.630538  
     219A      1.636819   220A      1.664492   221A      1.684040  
     222A      1.690647   223A      1.700337   224A      1.733085  
     225A      1.748195   226A      1.751416   227A      1.766083  
     228A      1.785169   229A      1.797905   230A      1.802143  
     231A      1.808901   232A      1.816927   233A      1.831692  
     234A      1.849609   235A      1.857166   236A      1.883764  
     237A      1.895480   238A      1.907744   239A      1.928847  
     240A      1.941071   241A      1.947915   242A      1.954521  
     243A      1.972082   244A      1.982866   245A      1.996555  
     246A      1.996655   247A      2.049135   248A      2.069533  
     249A      2.100706   250A      2.107457   251A      2.129977  
     252A      2.173758   253A      2.174836   254A      2.187739  
     255A      2.196800   256A      2.248428   257A      2.291013  
     258A      2.330858   259A      2.366882   260A      2.367416  
     261A      2.410895   262A      2.414856   263A      2.421614  
     264A      2.463530   265A      2.476422   266A      2.504400  
     267A      2.539357   268A      2.542840   269A      2.595288  
     270A      2.634723   271A      2.641862   272A      2.662635  
     273A      2.710023   274A      2.768260   275A      2.789319  
     276A      2.795860   277A      2.804775   278A      2.813316  
     279A      2.833990   280A      2.865318   281A      2.869446  
     282A      2.913052   283A      2.934211   284A      2.939026  
     285A      2.977375   286A      2.993457   287A      3.007849  
     288A      3.020542   289A      3.035853   290A      3.038822  
     291A      3.055138   292A      3.061930   293A      3.069377  
     294A      3.099943   295A      3.104926   296A      3.118205  
     297A      3.162080   298A      3.173434   299A      3.203304  
     300A      3.213296   301A      3.231449   302A      3.243744  
     303A      3.300711   304A      3.327999   305A      3.343214  
     306A      3.372119   307A      3.381903   308A      3.391958  
     309A      3.423260   310A      3.439969   311A      3.466846  
     312A      3.467231   313A      3.469886   314A      3.476841  
     315A      3.488133   316A      3.517577   317A      3.518995  
     318A      3.539670   319A      3.544050   320A      3.548143  
     321A      3.558345   322A      3.560229   323A      3.581775  
     324A      3.599013   325A      3.605314   326A      3.606762  
     327A      3.616713   328A      3.618849   329A      3.631302  
     330A      3.649631   331A      3.683337   332A      3.690180  
     333A      3.697231   334A      3.697382   335A      3.704655  
     336A      3.723963   337A      3.742411   338A      3.763531  
     339A      3.763937   340A      3.803175   341A      3.805375  
     342A      3.838209   343A      3.858507   344A      3.859383  
     345A      3.864781   346A      3.871010   347A      3.890581  
     348A      3.891086   349A      3.901362   350A      3.903812  
     351A      3.914461   352A      3.923578   353A      3.980817  
     354A      3.998172   355A      4.003212   356A      4.003710  
     357A      4.030715   358A      4.037949   359A      4.052137  
     360A      4.072286   361A      4.100875   362A      4.105266  
     363A      4.116326   364A      4.160198   365A      4.165558  
     366A      4.170767   367A      4.188691   368A      4.189665  
     369A      4.222297   370A      4.241572   371A      4.250717  
     372A      4.251592   373A      4.254897   374A      4.287897  
     375A      4.311048   376A      4.316174   377A      4.320881  
     378A      4.330234   379A      4.351813   380A      4.361713  
     381A      4.390991   382A      4.394512   383A      4.402341  
     384A      4.418643   385A      4.422515   386A      4.435471  
     387A      4.438317   388A      4.464275   389A      4.471228  
     390A      4.488402   391A      4.490193   392A      4.496872  
     393A      4.497166   394A      4.519806   395A      4.554557  
     396A      4.558070   397A      4.579190   398A      4.592857  
     399A      4.612955   400A      4.624390   401A      4.649586  
     402A      4.654718   403A      4.663050   404A      4.680734  
     405A      4.680944   406A      4.693027   407A      4.700423  
     408A      4.731517   409A      4.737056   410A      4.741880  
     411A      4.748999   412A      4.769642   413A      4.784231  
     414A      4.784636   415A      4.789311   416A      4.804346  
     417A      4.818700   418A      4.830762   419A      4.836274  
     420A      4.836331   421A      4.878961   422A      4.885531  
     423A      4.897319   424A      4.906956   425A      4.909616  
     426A      4.916915   427A      4.944139   428A      4.950187  
     429A      4.956252   430A      4.969261   431A      4.987557  
     432A      4.991508   433A      5.004265   434A      5.017378  
     435A      5.021521   436A      5.045368   437A      5.058912  
     438A      5.086069   439A      5.102517   440A      5.107502  
     441A      5.128470   442A      5.159075   443A      5.182920  
     444A      5.212430   445A      5.212829   446A      5.223617  
     447A      5.243880   448A      5.254663   449A      5.272443  
     450A      5.280683   451A      5.292634   452A      5.307284  
     453A      5.351090   454A      5.358087   455A      5.389567  
     456A      5.418307   457A      5.442450   458A      5.449606  
     459A      5.488129   460A      5.521934   461A      5.561111  
     462A      5.573474   463A      5.574274   464A      5.589132  
     465A      5.631723   466A      5.655445   467A      5.661687  
     468A      5.703202   469A      5.726567   470A      5.744030  
     471A      5.747453   472A      5.756785   473A      5.768641  
     474A      5.774524   475A      5.812756   476A      5.830665  
     477A      5.869485   478A      5.899509   479A      5.919413  
     480A      5.945347   481A      5.973165   482A      5.979657  
     483A      6.007178   484A      6.026061   485A      6.082326  
     486A      6.089142   487A      6.095203   488A      6.171887  
     489A      6.199222   490A      6.226829   491A      6.240867  
     492A      6.247720   493A      6.310369   494A      6.371609  
     495A      6.413736   496A      6.440388   497A      6.450654  
     498A      6.457170   499A      6.472392   500A      6.517197  
     501A      6.537850   502A      6.541177   503A      6.563614  
     504A      6.589107   505A      6.666420   506A      6.725857  
     507A      6.770345   508A      6.788639   509A      6.818453  
     510A      6.878895   511A      6.906749   512A      6.913442  
     513A      7.028047   514A      7.166185   515A      7.217811  
     516A      7.256474   517A      7.280077   518A      7.284404  
     519A      7.404391   520A      7.465994   521A      7.479799  
     522A      7.514285   523A      7.533353   524A      7.570570  
     525A      7.590344   526A      7.629793   527A      7.689833  
     528A      7.734840   529A      7.798284   530A      7.811395  
     531A      7.844208   532A      7.883731   533A      7.940232  
     534A      7.995087   535A      8.060574   536A      8.062877  
     537A      8.177299   538A      8.275729   539A      8.568467  
     540A      8.707463   541A      8.911793   542A      9.174723  
     543A      9.483243   544A      9.696791   545A      9.764744  
     546A      9.791441   547A      9.882126   548A      9.908734  
     549A      9.924197   550A      9.988673   551A      9.994154  
     552A     10.174189   553A     10.428745   554A     10.558285  
     555A     11.055766   556A     11.424602   557A     11.579875  
     558A     11.638526   559A     12.038068   560A     12.490328  
     561A     13.154826   562A     13.784080   563A     13.884858  
     564A     14.079897   565A     14.370519   566A     14.726919  
     567A     16.238824   568A     43.336767   569A     45.101146  
     570A     45.841431   571A     61.099603   572A     62.010369  

    Final Occupation by Irrep:
              A 
    DOCC [    20 ]

  @DF-RHF Final Energy:  -247.10583761488107

   => Energetics <=

    Nuclear Repulsion Energy =            179.2874746015192500
    One-Electron Energy =                -691.0986874651244989
    Two-Electron Energy =                 264.7053752487241809
    Total Energy =                       -247.1058376148810680

Computation Completed


Properties will be evaluated at   0.000000,   0.000000,   0.000000 [a0]

Properties computed using the SCF density matrix

  Nuclear Dipole Moment: [e a0]
     X:   193.8390      Y:    -5.0416      Z:     0.0101

  Electronic Dipole Moment: [e a0]
     X:  -192.9673      Y:     3.4659      Z:    -0.0090

  Dipole Moment: [e a0]
     X:     0.8717      Y:    -1.5756      Z:     0.0011     Total:     1.8007

  Dipole Moment: [D]
     X:     2.2158      Y:    -4.0048      Z:     0.0028     Total:     4.5769


*** tstop() called on r282 at Fri Sep 10 18:20:02 2021
Module time:
	user time   =      64.74 seconds =       1.08 minutes
	system time =       0.91 seconds =       0.02 minutes
	total time  =         66 seconds =       1.10 minutes
Total time:
	user time   =     237.49 seconds =       3.96 minutes
	system time =       3.96 seconds =       0.07 minutes
	total time  =        242 seconds =       4.03 minutes
  Constructing Basis Sets for SAPT...

   => Loading Basis Set <=

    Name: (JUN-CC-PVTZ AUX)
    Role: RIFIT
    Keyword: DF_BASIS_SAPT
    atoms 1-3, 12-13, 18     entry C          line   132 file /home/r08543048/miniconda3/share/psi4/basis/jun-cc-pvtz-ri.gbs 
    atoms 4-5, 14            entry O          line   244 file /home/r08543048/miniconda3/share/psi4/basis/jun-cc-pvtz-ri.gbs 
    atoms 6-11, 16-17, 19-23 entry H          line    30 file /home/r08543048/miniconda3/share/psi4/basis/jun-cc-pvtz-ri.gbs 
    atoms 15                 entry N          line   188 file /home/r08543048/miniconda3/share/psi4/basis/jun-cc-pvtz-ri.gbs 


  //>>>>>>>>>>>>>>>>>>>>>>>>>>>>>>>>>>>//
  //               SAPT0               //
  //<<<<<<<<<<<<<<<<<<<<<<<<<<<<<<<<<<<//


*** tstart() called on r282
*** at Fri Sep 10 18:20:02 2021

        SAPT0  
    Ed Hohenstein
     6 June 2009

      Orbital Information
  --------------------------
    NSO        =       572
    NMO        =       572
    NRI        =      1360
    NOCC A     =        20
    NOCC B     =        20
    FOCC A     =         0
    FOCC B     =         0
    NVIR A     =       552
    NVIR B     =       552

    Elst10,r            =    -0.049861295589 [Eh]
    Exch10              =     0.048453908151 [Eh]
    Exch10 (S^2)        =     0.047671015629 [Eh]

    Iter     Energy [mEh]          dE [mEh]         Residual      Time [s]
       1      -9.11012118       9.110121183      19.623274050             2
       2     -10.47105896       1.360937780      10.652427300             3
       3     -11.22387867       0.752819708       2.614884672             5
       4     -11.14334012      -0.080538550       1.031089162             6
       5     -11.13065850      -0.012681621       0.297366865             7
       6     -11.13991956       0.009261060       0.102952564             9
       7     -11.14043573       0.000516165       0.029123523            10
       8     -11.13974879      -0.000686935       0.009116344            12
       9     -11.13967776      -0.000071028       0.002876389            13
      10     -11.13973000       0.000052241       0.000740852            15
      11     -11.13973226       0.000002258       0.000151303            16
      12     -11.13972992      -0.000002340       0.000044547            18
      13     -11.13972971      -0.000000211       0.000011779            19
      14     -11.13972991       0.000000195       0.000002137            21
      15     -11.13972989      -0.000000015       0.000000425            22

    CHF Iterations converged


    Iter     Energy [mEh]          dE [mEh]         Residual      Time [s]
       1     -12.45746265      12.457462645      25.252806268             1
       2     -14.75708513       2.299622488      14.351244158             3
       3     -15.98176465       1.224679515       3.498627710             4
       4     -15.86985508      -0.111909570       1.380135080             6
       5     -15.84602782      -0.023827255       0.394534608             7
       6     -15.85982542       0.013797599       0.146325105             9
       7     -15.86172369       0.001898269       0.036153436            10
       8     -15.86066348      -0.001060212       0.010656274            12
       9     -15.86060193      -0.000061552       0.003175829            13
      10     -15.86066340       0.000061468       0.000703321            15
      11     -15.86066626       0.000002862       0.000136480            16
      12     -15.86066391      -0.000002344       0.000037671            18
      13     -15.86066377      -0.000000146       0.000012261            19
      14     -15.86066399       0.000000219       0.000002632            21
      15     -15.86066396      -0.000000027       0.000000641            22

    CHF Iterations converged

    Ind20,r (A<-B)      =    -0.011139729892 [Eh]
    Ind20,r (B<-A)      =    -0.015860663960 [Eh]
    Ind20,r             =    -0.027000393851 [Eh]
    Exch-Ind20,r (A<-B) =     0.006297293330 [Eh]
    Exch-Ind20,r (B<-A) =     0.007798593311 [Eh]
    Exch-Ind20,r        =     0.014095886641 [Eh]
    Disp20              =    -0.015830185366 [Eh]
    Disp20 (SS)         =    -0.007915092683 [Eh]
    Disp20 (OS)         =    -0.007915092683 [Eh]
    Exch-Disp20         =     0.003178353680 [Eh]
    Exch-Disp20 (SS)    =     0.001997206829 [Eh]
    Exch-Disp20 (OS)    =     0.001181146850 [Eh]

    SAPT Results 
  --------------------------------------------------------------------------------------------------------
    Electrostatics                -49.86129559 [mEh]     -31.28843536 [kcal/mol]    -130.91081353 [kJ/mol]
      Elst10,r                    -49.86129559 [mEh]     -31.28843536 [kcal/mol]    -130.91081353 [kJ/mol]

    Exchange                       48.45390815 [mEh]      30.40528641 [kcal/mol]     127.21571832 [kJ/mol]
      Exch10                       48.45390815 [mEh]      30.40528641 [kcal/mol]     127.21571832 [kJ/mol]
      Exch10(S^2)                  47.67101563 [mEh]      29.91401393 [kcal/mol]     125.16023429 [kJ/mol]

    Induction                     -22.70718528 [mEh]     -14.24897389 [kcal/mol]     -59.61770674 [kJ/mol]
      Ind20,r                     -27.00039385 [mEh]     -16.94300294 [kcal/mol]     -70.88952429 [kJ/mol]
      Exch-Ind20,r                 14.09588664 [mEh]       8.84530241 [kcal/mol]      37.00874528 [kJ/mol]
      delta HF,r (2)               -9.80267807 [mEh]      -6.15127336 [kcal/mol]     -25.73692773 [kJ/mol]

    Dispersion                    -12.65183169 [mEh]      -7.93914424 [kcal/mol]     -33.21737952 [kJ/mol]
      Disp20                      -15.83018537 [mEh]      -9.93359129 [kcal/mol]     -41.56214595 [kJ/mol]
      Exch-Disp20                   3.17835368 [mEh]       1.99444705 [kcal/mol]       8.34476644 [kJ/mol]
      Disp20 (SS)                  -7.91509268 [mEh]      -4.96679564 [kcal/mol]     -20.78107298 [kJ/mol]
      Disp20 (OS)                  -7.91509268 [mEh]      -4.96679564 [kcal/mol]     -20.78107298 [kJ/mol]
      Exch-Disp20 (SS)              1.99720683 [mEh]       1.25326621 [kcal/mol]       5.24366581 [kJ/mol]
      Exch-Disp20 (OS)              1.18114685 [mEh]       0.74118084 [kcal/mol]       3.10110063 [kJ/mol]

  Total HF                        -24.11457272 [mEh]     -15.13212284 [kcal/mol]     -63.31280195 [kJ/mol]
  Total SAPT0                     -36.76640440 [mEh]     -23.07126708 [kcal/mol]     -96.53018146 [kJ/mol]

  Special recipe for scaled SAPT0 (see Manual):
    Electrostatics sSAPT0         -49.86129559 [mEh]     -31.28843536 [kcal/mol]    -130.91081353 [kJ/mol]
    Exchange sSAPT0                48.45390815 [mEh]      30.40528641 [kcal/mol]     127.21571832 [kJ/mol]
    Induction sSAPT0              -22.00123484 [mEh]     -13.80598330 [kcal/mol]     -57.76423412 [kJ/mol]
    Dispersion sSAPT0             -12.49265332 [mEh]      -7.83925831 [kcal/mol]     -32.79945678 [kJ/mol]
  Total sSAPT0                    -35.90127560 [mEh]     -22.52839056 [kcal/mol]     -94.25878610 [kJ/mol]
  --------------------------------------------------------------------------------------------------------

*** tstop() called on r282 at Fri Sep 10 18:23:29 2021
Module time:
	user time   =     180.30 seconds =       3.00 minutes
	system time =      25.99 seconds =       0.43 minutes
	total time  =        207 seconds =       3.45 minutes
Total time:
	user time   =     417.95 seconds =       6.97 minutes
	system time =      29.95 seconds =       0.50 minutes
	total time  =        449 seconds =       7.48 minutes

    Psi4 stopped on: Friday, 10 September 2021 06:23PM
    Psi4 wall time for execution: 0:07:29.48

*** Psi4 exiting successfully. Buy a developer a beer!
