
    -----------------------------------------------------------------------
          Psi4: An Open-Source Ab Initio Electronic Structure Package
                               Psi4 1.3.2 release

                         Git: Rev {HEAD} ecbda83 


    R. M. Parrish, L. A. Burns, D. G. A. Smith, A. C. Simmonett,
    A. E. DePrince III, E. G. Hohenstein, U. Bozkaya, A. Yu. Sokolov,
    R. Di Remigio, R. M. Richard, J. F. Gonthier, A. M. James,
    H. R. McAlexander, A. Kumar, M. Saitow, X. Wang, B. P. Pritchard,
    P. Verma, H. F. Schaefer III, K. Patkowski, R. A. King, E. F. Valeev,
    F. A. Evangelista, J. M. Turney, T. D. Crawford, and C. D. Sherrill,
    J. Chem. Theory Comput. 13(7) pp 3185--3197 (2017).
    (doi: 10.1021/acs.jctc.7b00174)


                         Additional Contributions by
    P. Kraus, H. Kruse, M. H. Lechner, M. C. Schieber, R. A. Shaw,
    A. Alenaizan, R. Galvelis, Z. L. Glick, S. Lehtola, and J. P. Misiewicz

    -----------------------------------------------------------------------


    Psi4 started on: Friday, 10 September 2021 06:12PM

    Process ID: 56954
    Host:       r282
    PSIDATADIR: /home/r08543048/miniconda3/share/psi4
    Memory:     500.0 MiB
    Threads:    1
    
  ==> Input File <==

--------------------------------------------------------------------------
# Any line starting with the # character is a comment line
#! Sample  computation

memory 22 gb

molecule Dimer {
0 1
 C -3.288775    0.747734   -0.000140
 C -2.460690   -0.524493   -0.000158
 C -0.978561   -0.262784    0.000137
 O -0.489627    0.860361    0.000389
 O -0.271238   -1.385175    0.000026
 H -3.070180    1.352020   -0.878046
 H -4.350641    0.508116   -0.000352
 H -3.070481    1.351798    0.877994
 H -2.676237   -1.146586   -0.870438
 H -2.676534   -1.146801    0.869895
 H  0.705540   -1.180561    0.000226

    
    
 --
0 1
 C  2.962921    0.074834   -0.000158
 O  2.387398   -1.015829    0.000063
 N  2.348460    1.263319   -0.000089
 H  2.891576    2.107057   -0.000240
 H  1.328403    1.294302    0.000137
 H  4.057708    0.130822   -0.000470
  
  
  
  
  
  
 
 
 
 
 
 
units angstrom

no_reorient
symmetry c1
}

set globals{
  basis jun-cc-pvtz
}

energy('sapt0')


--------------------------------------------------------------------------

  Memory set to  20.489 GiB by Python driver.

  //>>>>>>>>>>>>>>>>>>>>>>>>>>>>>>>>>>>//
  //              Dimer HF             //
  //<<<<<<<<<<<<<<<<<<<<<<<<<<<<<<<<<<<//


*** tstart() called on r282
*** at Fri Sep 10 18:12:28 2021

   => Loading Basis Set <=

    Name: JUN-CC-PVTZ
    Role: ORBITAL
    Keyword: BASIS
    atoms 1-3, 12     entry C          line   217 file /home/r08543048/miniconda3/share/psi4/basis/jun-cc-pvtz.gbs 
    atoms 4-5, 13     entry O          line   305 file /home/r08543048/miniconda3/share/psi4/basis/jun-cc-pvtz.gbs 
    atoms 6-11, 15-17 entry H          line    36 file /home/r08543048/miniconda3/share/psi4/basis/jun-cc-pvtz.gbs 
    atoms 14          entry N          line   261 file /home/r08543048/miniconda3/share/psi4/basis/jun-cc-pvtz.gbs 


         ---------------------------------------------------------
                                   SCF
               by Justin Turney, Rob Parrish, Andy Simmonett
                          and Daniel G. A. Smith
                              RHF Reference
                        1 Threads,  20980 MiB Core
         ---------------------------------------------------------

  ==> Geometry <==

    Molecular point group: c1
    Full point group: C1

    Geometry (in Angstrom), charge = 0, multiplicity = 1:

       Center              X                  Y                   Z               Mass       
    ------------   -----------------  -----------------  -----------------  -----------------
         C           -3.345941334023     0.774887564073    -0.000150643278    12.000000000000
         C           -2.517856334023    -0.497339435927    -0.000168643278    12.000000000000
         C           -1.035727334023    -0.235630435927     0.000126356722    12.000000000000
         O           -0.546793334023     0.887514564073     0.000378356722    15.994914619570
         O           -0.328404334023    -1.358021435927     0.000015356722    15.994914619570
         H           -3.127346334023     1.379173564073    -0.878056643278     1.007825032230
         H           -4.407807334023     0.535269564073    -0.000362643278     1.007825032230
         H           -3.127647334023     1.378951564073     0.877983356722     1.007825032230
         H           -2.733403334023    -1.119432435927    -0.870448643278     1.007825032230
         H           -2.733700334023    -1.119647435927     0.869884356722     1.007825032230
         H            0.648373665977    -1.153407435927     0.000215356722     1.007825032230
         C            2.905754665977     0.101987564073    -0.000168643278    12.000000000000
         O            2.330231665977    -0.988675435927     0.000052356722    15.994914619570
         N            2.291293665977     1.290472564073    -0.000099643278    14.003074004430
         H            2.834409665977     2.134210564073    -0.000250643278     1.007825032230
         H            1.271236665977     1.321455564073     0.000126356722     1.007825032230
         H            4.000541665977     0.157975564073    -0.000480643278     1.007825032230

  Running in c1 symmetry.

  Rotational constants: A =      0.15403  B =      0.02931  C =      0.02485 [cm^-1]
  Rotational constants: A =   4617.74325  B =    878.57862  C =    744.84087 [MHz]
  Nuclear repulsion =  377.094120735631350

  Charge       = 0
  Multiplicity = 1
  Electrons    = 64
  Nalpha       = 32
  Nbeta        = 32

  ==> Algorithm <==

  SCF Algorithm Type is DF.
  DIIS enabled.
  MOM disabled.
  Fractional occupation disabled.
  Guess Type is SAD.
  Energy threshold   = 1.00e-08
  Density threshold  = 1.00e-08
  Integral threshold = 0.00e+00

  ==> Primary Basis <==

  Basis Set: JUN-CC-PVTZ
    Blend: JUN-CC-PVTZ
    Number of shells: 158
    Number of basis function: 438
    Number of Cartesian functions: 495
    Spherical Harmonics?: true
    Max angular momentum: 3

   => Loading Basis Set <=

    Name: (JUN-CC-PVTZ AUX)
    Role: JKFIT
    Keyword: DF_BASIS_SCF
    atoms 1-3, 12     entry C          line   152 file /home/r08543048/miniconda3/share/psi4/basis/jun-cc-pvtz-jkfit.gbs 
    atoms 4-5, 13     entry O          line   272 file /home/r08543048/miniconda3/share/psi4/basis/jun-cc-pvtz-jkfit.gbs 
    atoms 6-11, 15-17 entry H          line    70 file /home/r08543048/miniconda3/share/psi4/basis/jun-cc-pvtz-jkfit.gbs 
    atoms 14          entry N          line   212 file /home/r08543048/miniconda3/share/psi4/basis/jun-cc-pvtz-jkfit.gbs 

  ==> Pre-Iterations <==

   -------------------------------------------------------
    Irrep   Nso     Nmo     Nalpha   Nbeta   Ndocc  Nsocc
   -------------------------------------------------------
     A        438     438       0       0       0       0
   -------------------------------------------------------
    Total     438     438      32      32      32       0
   -------------------------------------------------------

  ==> Integral Setup <==

  ==> DiskDFJK: Density-Fitted J/K Matrices <==

    J tasked:                  Yes
    K tasked:                  Yes
    wK tasked:                  No
    OpenMP threads:              1
    Integrals threads:           1
    Memory [MiB]:            15735
    Algorithm:                Core
    Integral Cache:           SAVE
    Schwarz Cutoff:          1E-12
    Fitting Condition:       1E-10

   => Auxiliary Basis Set <=

  Basis Set: (JUN-CC-PVTZ AUX)
    Blend: JUN-CC-PVTZ-JKFIT
    Number of shells: 322
    Number of basis function: 1030
    Number of Cartesian functions: 1243
    Spherical Harmonics?: true
    Max angular momentum: 4

  Minimum eigenvalue in the overlap matrix is 3.5785242130E-05.
  Using Symmetric Orthogonalization.

  SCF Guess: Superposition of Atomic Densities via on-the-fly atomic UHF.

  ==> Iterations <==

                           Total Energy        Delta E     RMS |[F,P]|

   @DF-RHF iter SAD:  -434.52794698100644   -4.34528e+02   0.00000e+00 
   @DF-RHF iter   1:  -435.68703336368173   -1.15909e+00   1.82545e-03 DIIS
   @DF-RHF iter   2:  -435.89920201801840   -2.12169e-01   1.04797e-03 DIIS
   @DF-RHF iter   3:  -435.96984739226633   -7.06454e-02   1.81506e-04 DIIS
   @DF-RHF iter   4:  -435.97355477094925   -3.70738e-03   8.10339e-05 DIIS
   @DF-RHF iter   5:  -435.97427972655879   -7.24956e-04   1.64845e-05 DIIS
   @DF-RHF iter   6:  -435.97433755393644   -5.78274e-05   8.06329e-06 DIIS
   @DF-RHF iter   7:  -435.97434914902118   -1.15951e-05   2.78881e-06 DIIS
   @DF-RHF iter   8:  -435.97435152684170   -2.37782e-06   1.08102e-06 DIIS
   @DF-RHF iter   9:  -435.97435185548261   -3.28641e-07   3.93591e-07 DIIS
   @DF-RHF iter  10:  -435.97435189269032   -3.72077e-08   1.16687e-07 DIIS
   @DF-RHF iter  11:  -435.97435189565186   -2.96154e-09   4.10548e-08 DIIS
   @DF-RHF iter  12:  -435.97435189589476   -2.42892e-10   1.69968e-08 DIIS
   @DF-RHF iter  13:  -435.97435189593301   -3.82556e-11   5.15228e-09 DIIS
  Energy and wave function converged.


  ==> Post-Iterations <==

    Orbital Energies [Eh]
    ---------------------

    Doubly Occupied:                                                      

       1A    -20.584258     2A    -20.542720     3A    -20.541909  
       4A    -15.592840     5A    -11.379857     6A    -11.368622  
       7A    -11.238995     8A    -11.216835     9A     -1.447925  
      10A     -1.394279    11A     -1.346138    12A     -1.226153  
      13A     -1.059788    14A     -0.909058    15A     -0.859586  
      16A     -0.785856    17A     -0.759707    18A     -0.724224  
      19A     -0.677241    20A     -0.663659    21A     -0.651778  
      22A     -0.621061    23A     -0.585360    24A     -0.577968  
      25A     -0.577223    26A     -0.526887    27A     -0.519086  
      28A     -0.497976    29A     -0.472201    30A     -0.462314  
      31A     -0.439420    32A     -0.427744  

    Virtual:                                                              

      33A      0.049146    34A      0.052224    35A      0.063790  
      36A      0.069757    37A      0.073452    38A      0.082323  
      39A      0.083641    40A      0.105320    41A      0.110526  
      42A      0.112763    43A      0.113794    44A      0.115423  
      45A      0.134943    46A      0.145935    47A      0.148855  
      48A      0.167918    49A      0.170115    50A      0.184944  
      51A      0.186111    52A      0.192324    53A      0.213756  
      54A      0.219469    55A      0.223921    56A      0.233350  
      57A      0.243252    58A      0.251746    59A      0.252307  
      60A      0.256675    61A      0.261290    62A      0.262690  
      63A      0.284202    64A      0.294103    65A      0.298607  
      66A      0.306299    67A      0.307616    68A      0.307807  
      69A      0.328063    70A      0.331562    71A      0.334292  
      72A      0.339473    73A      0.344073    74A      0.345370  
      75A      0.372184    76A      0.376369    77A      0.378107  
      78A      0.396561    79A      0.407309    80A      0.414876  
      81A      0.428576    82A      0.436778    83A      0.437369  
      84A      0.443666    85A      0.462389    86A      0.470141  
      87A      0.477484    88A      0.495761    89A      0.506243  
      90A      0.511631    91A      0.520828    92A      0.533086  
      93A      0.536026    94A      0.546268    95A      0.556883  
      96A      0.561422    97A      0.574479    98A      0.579907  
      99A      0.585077   100A      0.591847   101A      0.599721  
     102A      0.600912   103A      0.625845   104A      0.630557  
     105A      0.636774   106A      0.651828   107A      0.696058  
     108A      0.697281   109A      0.706409   110A      0.708286  
     111A      0.723101   112A      0.726298   113A      0.748812  
     114A      0.750783   115A      0.763928   116A      0.771174  
     117A      0.791257   118A      0.793541   119A      0.801746  
     120A      0.815949   121A      0.823285   122A      0.842265  
     123A      0.844797   124A      0.849600   125A      0.850778  
     126A      0.873059   127A      0.874345   128A      0.889445  
     129A      0.896674   130A      0.902608   131A      0.920647  
     132A      0.927581   133A      0.942194   134A      0.963313  
     135A      0.975716   136A      0.990189   137A      0.996297  
     138A      1.008274   139A      1.013627   140A      1.029556  
     141A      1.035517   142A      1.058613   143A      1.064047  
     144A      1.079167   145A      1.093293   146A      1.096648  
     147A      1.104269   148A      1.127235   149A      1.132191  
     150A      1.144374   151A      1.178508   152A      1.197845  
     153A      1.215426   154A      1.229379   155A      1.239713  
     156A      1.261526   157A      1.269550   158A      1.276739  
     159A      1.291829   160A      1.306424   161A      1.308084  
     162A      1.315201   163A      1.357922   164A      1.361466  
     165A      1.381927   166A      1.385238   167A      1.393417  
     168A      1.416184   169A      1.416812   170A      1.427750  
     171A      1.438267   172A      1.441261   173A      1.448944  
     174A      1.460612   175A      1.475761   176A      1.476685  
     177A      1.496241   178A      1.520434   179A      1.532896  
     180A      1.535919   181A      1.550974   182A      1.563854  
     183A      1.592731   184A      1.593443   185A      1.617902  
     186A      1.634932   187A      1.643411   188A      1.665476  
     189A      1.683244   190A      1.695508   191A      1.717882  
     192A      1.755777   193A      1.768656   194A      1.780885  
     195A      1.789914   196A      1.792379   197A      1.820777  
     198A      1.853814   199A      1.864395   200A      1.882197  
     201A      1.898939   202A      1.926101   203A      1.929750  
     204A      1.947610   205A      2.003591   206A      2.048236  
     207A      2.124426   208A      2.146203   209A      2.179784  
     210A      2.235195   211A      2.255577   212A      2.265043  
     213A      2.280339   214A      2.299936   215A      2.336930  
     216A      2.340610   217A      2.377745   218A      2.389215  
     219A      2.441715   220A      2.453595   221A      2.463542  
     222A      2.533744   223A      2.567522   224A      2.642624  
     225A      2.654029   226A      2.676519   227A      2.692745  
     228A      2.743955   229A      2.783434   230A      2.792675  
     231A      2.819924   232A      2.849377   233A      2.884090  
     234A      2.894582   235A      2.905818   236A      2.948476  
     237A      2.989523   238A      3.023588   239A      3.033213  
     240A      3.057419   241A      3.064402   242A      3.090660  
     243A      3.116498   244A      3.133425   245A      3.137059  
     246A      3.139682   247A      3.144288   248A      3.198057  
     249A      3.223225   250A      3.242889   251A      3.253077  
     252A      3.301310   253A      3.305592   254A      3.349234  
     255A      3.369376   256A      3.369721   257A      3.387268  
     258A      3.406841   259A      3.414730   260A      3.420948  
     261A      3.423431   262A      3.454825   263A      3.468473  
     264A      3.481060   265A      3.485419   266A      3.493714  
     267A      3.496244   268A      3.501310   269A      3.517582  
     270A      3.521682   271A      3.549380   272A      3.567263  
     273A      3.575826   274A      3.577232   275A      3.582816  
     276A      3.614808   277A      3.617281   278A      3.669335  
     279A      3.672997   280A      3.675246   281A      3.680549  
     282A      3.712309   283A      3.754213   284A      3.759398  
     285A      3.790394   286A      3.794602   287A      3.803824  
     288A      3.814562   289A      3.825085   290A      3.836647  
     291A      3.866848   292A      3.886189   293A      3.886419  
     294A      3.914828   295A      3.916140   296A      3.948036  
     297A      3.967322   298A      3.981345   299A      4.005774  
     300A      4.018887   301A      4.065104   302A      4.089163  
     303A      4.125194   304A      4.132590   305A      4.154615  
     306A      4.219091   307A      4.219629   308A      4.224132  
     309A      4.243227   310A      4.246102   311A      4.251685  
     312A      4.259541   313A      4.261437   314A      4.312285  
     315A      4.329943   316A      4.342769   317A      4.359544  
     318A      4.368512   319A      4.390074   320A      4.414427  
     321A      4.422257   322A      4.425112   323A      4.443182  
     324A      4.460810   325A      4.471199   326A      4.484514  
     327A      4.514326   328A      4.520485   329A      4.542214  
     330A      4.587118   331A      4.598922   332A      4.617403  
     333A      4.625764   334A      4.640677   335A      4.665803  
     336A      4.675178   337A      4.697325   338A      4.711833  
     339A      4.718035   340A      4.721684   341A      4.732404  
     342A      4.794077   343A      4.813812   344A      4.843872  
     345A      4.863098   346A      4.882875   347A      4.932338  
     348A      4.961411   349A      4.999440   350A      5.014643  
     351A      5.060971   352A      5.073015   353A      5.137211  
     354A      5.137399   355A      5.198207   356A      5.229997  
     357A      5.238572   358A      5.263767   359A      5.278860  
     360A      5.283714   361A      5.308814   362A      5.318179  
     363A      5.321445   364A      5.331833   365A      5.372666  
     366A      5.461597   367A      5.476424   368A      5.501279  
     369A      5.527280   370A      5.554128   371A      5.610512  
     372A      5.619162   373A      5.653416   374A      5.654240  
     375A      5.723881   376A      5.726382   377A      5.742728  
     378A      5.745795   379A      5.811569   380A      5.827203  
     381A      5.839165   382A      5.887002   383A      5.890630  
     384A      5.908180   385A      5.908279   386A      5.963396  
     387A      5.985906   388A      6.013687   389A      6.033544  
     390A      6.034666   391A      6.061430   392A      6.075818  
     393A      6.141413   394A      6.235847   395A      6.249519  
     396A      6.307320   397A      6.403935   398A      6.483844  
     399A      6.506415   400A      6.511439   401A      6.577316  
     402A      6.625797   403A      6.683784   404A      6.727931  
     405A      6.749520   406A      6.800590   407A      6.931198  
     408A      6.958897   409A      6.996814   410A      7.100812  
     411A      7.179611   412A      7.186925   413A      7.255810  
     414A      7.269881   415A      7.293068   416A      7.334675  
     417A      7.400580   418A      7.409557   419A      7.432133  
     420A      7.447908   421A      7.462100   422A      7.486921  
     423A      7.625323   424A      7.717150   425A      7.772480  
     426A      7.829471   427A      7.872299   428A      7.974752  
     429A      8.036901   430A      8.363724   431A     12.210371  
     432A     12.707190   433A     13.860939   434A     14.141777  
     435A     14.232754   436A     14.540874   437A     14.732853  
     438A     15.996446  

    Final Occupation by Irrep:
              A 
    DOCC [    32 ]

  @DF-RHF Final Energy:  -435.97435189593301

   => Energetics <=

    Nuclear Repulsion Energy =            377.0941207356313498
    One-Electron Energy =               -1344.7796115835399178
    Two-Electron Energy =                 531.7111389519754994
    Total Energy =                       -435.9743518959330686

Computation Completed


Properties will be evaluated at   0.000000,   0.000000,   0.000000 [a0]

Properties computed using the SCF density matrix

  Nuclear Dipole Moment: [e a0]
     X:    -6.9138      Y:     3.2840      Z:    -0.0013

  Electronic Dipole Moment: [e a0]
     X:     7.2162      Y:    -2.3113      Z:     0.0009

  Dipole Moment: [e a0]
     X:     0.3023      Y:     0.9727      Z:    -0.0004     Total:     1.0186

  Dipole Moment: [D]
     X:     0.7685      Y:     2.4724      Z:    -0.0009     Total:     2.5890


*** tstop() called on r282 at Fri Sep 10 18:13:11 2021
Module time:
	user time   =      42.20 seconds =       0.70 minutes
	system time =       1.07 seconds =       0.02 minutes
	total time  =         43 seconds =       0.72 minutes
Total time:
	user time   =      42.20 seconds =       0.70 minutes
	system time =       1.07 seconds =       0.02 minutes
	total time  =         43 seconds =       0.72 minutes

  //>>>>>>>>>>>>>>>>>>>>>>>>>>>>>>>>>>>//
  //            Monomer A HF           //
  //<<<<<<<<<<<<<<<<<<<<<<<<<<<<<<<<<<<//


*** tstart() called on r282
*** at Fri Sep 10 18:13:11 2021

   => Loading Basis Set <=

    Name: JUN-CC-PVTZ
    Role: ORBITAL
    Keyword: BASIS
    atoms 1-3, 12     entry C          line   217 file /home/r08543048/miniconda3/share/psi4/basis/jun-cc-pvtz.gbs 
    atoms 4-5, 13     entry O          line   305 file /home/r08543048/miniconda3/share/psi4/basis/jun-cc-pvtz.gbs 
    atoms 6-11, 15-17 entry H          line    36 file /home/r08543048/miniconda3/share/psi4/basis/jun-cc-pvtz.gbs 
    atoms 14          entry N          line   261 file /home/r08543048/miniconda3/share/psi4/basis/jun-cc-pvtz.gbs 


         ---------------------------------------------------------
                                   SCF
               by Justin Turney, Rob Parrish, Andy Simmonett
                          and Daniel G. A. Smith
                              RHF Reference
                        1 Threads,  20980 MiB Core
         ---------------------------------------------------------

  ==> Geometry <==

    Molecular point group: c1
    Full point group: C1

    Geometry (in Angstrom), charge = 0, multiplicity = 1:

       Center              X                  Y                   Z               Mass       
    ------------   -----------------  -----------------  -----------------  -----------------
         C           -3.345941334023     0.774887564073    -0.000150643278    12.000000000000
         C           -2.517856334023    -0.497339435927    -0.000168643278    12.000000000000
         C           -1.035727334023    -0.235630435927     0.000126356722    12.000000000000
         O           -0.546793334023     0.887514564073     0.000378356722    15.994914619570
         O           -0.328404334023    -1.358021435927     0.000015356722    15.994914619570
         H           -3.127346334023     1.379173564073    -0.878056643278     1.007825032230
         H           -4.407807334023     0.535269564073    -0.000362643278     1.007825032230
         H           -3.127647334023     1.378951564073     0.877983356722     1.007825032230
         H           -2.733403334023    -1.119432435927    -0.870448643278     1.007825032230
         H           -2.733700334023    -1.119647435927     0.869884356722     1.007825032230
         H            0.648373665977    -1.153407435927     0.000215356722     1.007825032230
      Gh(C)           2.905754665977     0.101987564073    -0.000168643278    12.000000000000
      Gh(O)           2.330231665977    -0.988675435927     0.000052356722    15.994914619570
      Gh(N)           2.291293665977     1.290472564073    -0.000099643278    14.003074004430
      Gh(H)           2.834409665977     2.134210564073    -0.000250643278     1.007825032230
      Gh(H)           1.271236665977     1.321455564073     0.000126356722     1.007825032230
      Gh(H)           4.000541665977     0.157975564073    -0.000480643278     1.007825032230

  Running in c1 symmetry.

  Rotational constants: A =      0.15403  B =      0.02931  C =      0.02485 [cm^-1]
  Rotational constants: A =   4617.74325  B =    878.57862  C =    744.84087 [MHz]
  Nuclear repulsion =  178.704360560585883

  Charge       = 0
  Multiplicity = 1
  Electrons    = 40
  Nalpha       = 20
  Nbeta        = 20

  ==> Algorithm <==

  SCF Algorithm Type is DF.
  DIIS enabled.
  MOM disabled.
  Fractional occupation disabled.
  Guess Type is SAD.
  Energy threshold   = 1.00e-08
  Density threshold  = 1.00e-08
  Integral threshold = 0.00e+00

  ==> Primary Basis <==

  Basis Set: JUN-CC-PVTZ
    Blend: JUN-CC-PVTZ
    Number of shells: 158
    Number of basis function: 438
    Number of Cartesian functions: 495
    Spherical Harmonics?: true
    Max angular momentum: 3

   => Loading Basis Set <=

    Name: (JUN-CC-PVTZ AUX)
    Role: JKFIT
    Keyword: DF_BASIS_SCF
    atoms 1-3, 12     entry C          line   152 file /home/r08543048/miniconda3/share/psi4/basis/jun-cc-pvtz-jkfit.gbs 
    atoms 4-5, 13     entry O          line   272 file /home/r08543048/miniconda3/share/psi4/basis/jun-cc-pvtz-jkfit.gbs 
    atoms 6-11, 15-17 entry H          line    70 file /home/r08543048/miniconda3/share/psi4/basis/jun-cc-pvtz-jkfit.gbs 
    atoms 14          entry N          line   212 file /home/r08543048/miniconda3/share/psi4/basis/jun-cc-pvtz-jkfit.gbs 

  ==> Pre-Iterations <==

   -------------------------------------------------------
    Irrep   Nso     Nmo     Nalpha   Nbeta   Ndocc  Nsocc
   -------------------------------------------------------
     A        438     438       0       0       0       0
   -------------------------------------------------------
    Total     438     438      20      20      20       0
   -------------------------------------------------------

  ==> Integral Setup <==

  ==> DiskDFJK: Density-Fitted J/K Matrices <==

    J tasked:                  Yes
    K tasked:                  Yes
    wK tasked:                  No
    OpenMP threads:              1
    Integrals threads:           1
    Memory [MiB]:            15735
    Algorithm:                Core
    Integral Cache:           LOAD
    Schwarz Cutoff:          1E-12
    Fitting Condition:       1E-10

   => Auxiliary Basis Set <=

  Basis Set: (JUN-CC-PVTZ AUX)
    Blend: JUN-CC-PVTZ-JKFIT
    Number of shells: 322
    Number of basis function: 1030
    Number of Cartesian functions: 1243
    Spherical Harmonics?: true
    Max angular momentum: 4

  Minimum eigenvalue in the overlap matrix is 3.5785242130E-05.
  Using Symmetric Orthogonalization.

  SCF Guess: Superposition of Atomic Densities via on-the-fly atomic UHF.

  ==> Iterations <==

                           Total Energy        Delta E     RMS |[F,P]|

   @DF-RHF iter SAD:  -266.05917065541894   -2.66059e+02   0.00000e+00 
   @DF-RHF iter   1:  -266.74652461892185   -6.87354e-01   1.48883e-03 DIIS
   @DF-RHF iter   2:  -266.89482118482488   -1.48297e-01   8.86249e-04 DIIS
   @DF-RHF iter   3:  -266.94617020453370   -5.13490e-02   1.59398e-04 DIIS
   @DF-RHF iter   4:  -266.94904218892378   -2.87198e-03   7.49358e-05 DIIS
   @DF-RHF iter   5:  -266.94968512830701   -6.42939e-04   1.46633e-05 DIIS
   @DF-RHF iter   6:  -266.94972960335429   -4.44750e-05   7.04618e-06 DIIS
   @DF-RHF iter   7:  -266.94973835628912   -8.75293e-06   2.58295e-06 DIIS
   @DF-RHF iter   8:  -266.94974020770098   -1.85141e-06   9.32664e-07 DIIS
   @DF-RHF iter   9:  -266.94974047523249   -2.67532e-07   2.18862e-07 DIIS
   @DF-RHF iter  10:  -266.94974048883876   -1.36063e-08   6.71299e-08 DIIS
   @DF-RHF iter  11:  -266.94974048965389   -8.15135e-10   1.74803e-08 DIIS
   @DF-RHF iter  12:  -266.94974048971432   -6.04246e-11   4.02643e-09 DIIS
  Energy and wave function converged.


  ==> Post-Iterations <==

    Orbital Energies [Eh]
    ---------------------

    Doubly Occupied:                                                      

       1A    -20.622471     2A    -20.544207     3A    -11.385474  
       4A    -11.246684     5A    -11.220262     6A     -1.466819  
       7A     -1.353283     8A     -1.065720     9A     -0.916666  
      10A     -0.802908    11A     -0.702013    12A     -0.688963  
      13A     -0.663158    14A     -0.595680    15A     -0.590544  
      16A     -0.533743    17A     -0.523190    18A     -0.504196  
      19A     -0.477220    20A     -0.449560  

    Virtual:                                                              

      21A      0.036924    22A      0.049805    23A      0.058492  
      24A      0.067669    25A      0.068041    26A      0.074924  
      27A      0.080985    28A      0.100180    29A      0.107047  
      30A      0.109842    31A      0.112017    32A      0.117889  
      33A      0.133841    34A      0.141292    35A      0.151438  
      36A      0.153422    37A      0.163842    38A      0.165737  
      39A      0.186661    40A      0.189639    41A      0.199828  
      42A      0.201658    43A      0.210856    44A      0.212700  
      45A      0.225963    46A      0.229442    47A      0.236730  
      48A      0.255283    49A      0.257046    50A      0.271757  
      51A      0.288467    52A      0.291919    53A      0.300198  
      54A      0.304524    55A      0.306022    56A      0.323677  
      57A      0.330802    58A      0.335740    59A      0.344359  
      60A      0.347036    61A      0.350628    62A      0.353752  
      63A      0.371970    64A      0.372818    65A      0.379077  
      66A      0.386216    67A      0.391695    68A      0.403367  
      69A      0.418951    70A      0.419442    71A      0.438303  
      72A      0.449996    73A      0.450427    74A      0.467383  
      75A      0.472973    76A      0.473184    77A      0.484835  
      78A      0.506258    79A      0.514776    80A      0.516033  
      81A      0.534823    82A      0.546093    83A      0.550254  
      84A      0.555329    85A      0.565522    86A      0.581008  
      87A      0.586333    88A      0.614626    89A      0.620760  
      90A      0.631144    91A      0.633033    92A      0.649366  
      93A      0.666657    94A      0.675348    95A      0.691507  
      96A      0.702790    97A      0.719827    98A      0.733774  
      99A      0.736176   100A      0.747124   101A      0.760569  
     102A      0.773841   103A      0.777218   104A      0.784487  
     105A      0.791177   106A      0.809823   107A      0.811168  
     108A      0.817575   109A      0.823936   110A      0.825920  
     111A      0.835334   112A      0.842627   113A      0.861976  
     114A      0.868225   115A      0.875328   116A      0.897649  
     117A      0.907561   118A      0.918399   119A      0.924520  
     120A      0.946032   121A      0.950710   122A      0.959741  
     123A      0.961400   124A      0.966566   125A      0.995140  
     126A      1.007333   127A      1.024044   128A      1.031888  
     129A      1.037180   130A      1.040899   131A      1.057810  
     132A      1.088944   133A      1.094025   134A      1.130114  
     135A      1.131153   136A      1.136424   137A      1.144446  
     138A      1.191563   139A      1.204732   140A      1.208593  
     141A      1.220902   142A      1.245653   143A      1.268383  
     144A      1.269092   145A      1.290752   146A      1.297846  
     147A      1.320614   148A      1.355644   149A      1.359556  
     150A      1.362746   151A      1.370497   152A      1.413582  
     153A      1.415711   154A      1.418684   155A      1.418956  
     156A      1.436228   157A      1.452344   158A      1.461943  
     159A      1.478743   160A      1.489079   161A      1.490775  
     162A      1.508693   163A      1.524445   164A      1.533655  
     165A      1.548509   166A      1.551637   167A      1.570604  
     168A      1.585157   169A      1.603605   170A      1.613140  
     171A      1.620538   172A      1.631721   173A      1.666914  
     174A      1.683013   175A      1.685333   176A      1.701808  
     177A      1.707472   178A      1.723862   179A      1.731091  
     180A      1.771231   181A      1.792462   182A      1.799617  
     183A      1.805804   184A      1.839394   185A      1.856099  
     186A      1.899074   187A      1.902897   188A      1.903391  
     189A      1.926883   190A      1.939123   191A      1.955588  
     192A      2.042400   193A      2.044881   194A      2.073689  
     195A      2.117455   196A      2.153182   197A      2.197893  
     198A      2.260271   199A      2.272073   200A      2.273203  
     201A      2.289834   202A      2.345920   203A      2.349217  
     204A      2.397782   205A      2.439939   206A      2.462088  
     207A      2.474083   208A      2.499830   209A      2.558845  
     210A      2.582358   211A      2.636619   212A      2.637542  
     213A      2.679839   214A      2.702293   215A      2.725787  
     216A      2.751621   217A      2.784207   218A      2.791770  
     219A      2.809550   220A      2.833329   221A      2.860990  
     222A      2.869186   223A      2.888558   224A      2.912431  
     225A      2.939766   226A      2.959374   227A      2.960473  
     228A      3.006828   229A      3.029257   230A      3.029431  
     231A      3.082611   232A      3.100852   233A      3.114111  
     234A      3.127722   235A      3.130652   236A      3.206529  
     237A      3.221762   238A      3.239215   239A      3.258434  
     240A      3.302070   241A      3.326525   242A      3.327965  
     243A      3.343467   244A      3.365698   245A      3.385578  
     246A      3.412345   247A      3.439006   248A      3.450563  
     249A      3.478348   250A      3.486676   251A      3.492676  
     252A      3.514354   253A      3.515188   254A      3.545005  
     255A      3.559083   256A      3.601806   257A      3.607818  
     258A      3.626307   259A      3.650616   260A      3.666584  
     261A      3.675286   262A      3.699619   263A      3.712574  
     264A      3.719421   265A      3.730832   266A      3.780313  
     267A      3.783849   268A      3.787018   269A      3.793777  
     270A      3.821657   271A      3.873152   272A      3.879228  
     273A      3.879926   274A      3.901245   275A      3.909236  
     276A      3.958477   277A      3.977731   278A      3.998505  
     279A      4.029612   280A      4.030551   281A      4.062922  
     282A      4.078461   283A      4.111374   284A      4.210210  
     285A      4.211773   286A      4.213241   287A      4.219053  
     288A      4.235154   289A      4.248925   290A      4.259852  
     291A      4.307794   292A      4.324575   293A      4.338721  
     294A      4.352929   295A      4.355942   296A      4.365013  
     297A      4.404779   298A      4.412559   299A      4.418405  
     300A      4.440383   301A      4.445181   302A      4.465141  
     303A      4.479326   304A      4.486341   305A      4.497486  
     306A      4.536579   307A      4.543737   308A      4.575151  
     309A      4.606911   310A      4.633459   311A      4.633971  
     312A      4.661788   313A      4.664393   314A      4.698682  
     315A      4.702923   316A      4.708315   317A      4.716309  
     318A      4.730676   319A      4.732178   320A      4.777760  
     321A      4.782954   322A      4.800701   323A      4.824946  
     324A      4.837978   325A      4.847557   326A      4.888275  
     327A      4.897560   328A      4.905462   329A      4.928103  
     330A      4.937475   331A      4.975775   332A      5.026756  
     333A      5.038410   334A      5.075261   335A      5.085418  
     336A      5.117555   337A      5.132841   338A      5.138325  
     339A      5.160224   340A      5.223070   341A      5.264109  
     342A      5.274446   343A      5.285888   344A      5.316165  
     345A      5.322205   346A      5.342707   347A      5.455915  
     348A      5.477177   349A      5.495624   350A      5.535259  
     351A      5.594785   352A      5.618220   353A      5.645393  
     354A      5.654221   355A      5.696410   356A      5.738170  
     357A      5.739829   358A      5.756845   359A      5.809299  
     360A      5.830581   361A      5.861378   362A      5.884349  
     363A      5.887320   364A      5.905175   365A      5.943717  
     366A      5.987299   367A      6.039666   368A      6.043815  
     369A      6.072822   370A      6.076947   371A      6.157403  
     372A      6.241654   373A      6.293567   374A      6.295076  
     375A      6.355495   376A      6.420376   377A      6.480264  
     378A      6.497657   379A      6.504059   380A      6.520838  
     381A      6.567692   382A      6.570891   383A      6.579634  
     384A      6.594988   385A      6.736492   386A      6.788221  
     387A      6.842804   388A      6.888444   389A      6.896498  
     390A      6.962731   391A      6.998223   392A      7.076788  
     393A      7.139951   394A      7.187721   395A      7.281526  
     396A      7.312960   397A      7.324252   398A      7.327674  
     399A      7.402342   400A      7.415695   401A      7.441093  
     402A      7.442474   403A      7.470622   404A      7.557918  
     405A      7.675620   406A      7.775425   407A      7.797285  
     408A      7.832124   409A      7.902850   410A      7.998455  
     411A      8.140500   412A      8.187884   413A      8.360626  
     414A      8.471704   415A      8.872900   416A      9.044414  
     417A      9.099011   418A      9.319546   419A      9.501086  
     420A      9.753224   421A      9.845766   422A      9.896911  
     423A     10.247881   424A     10.534077   425A     10.864365  
     426A     11.379955   427A     11.500376   428A     11.699848  
     429A     11.898832   430A     12.220164   431A     13.649538  
     432A     13.894097   433A     14.139600   434A     14.532661  
     435A     14.724358   436A     44.769119   437A     55.761207  
     438A     60.345149  

    Final Occupation by Irrep:
              A 
    DOCC [    20 ]

  @DF-RHF Final Energy:  -266.94974048971432

   => Energetics <=

    Nuclear Repulsion Energy =            178.7043605605858829
    One-Electron Energy =                -718.6026809941124611
    Two-Electron Energy =                 272.9485799438122626
    Total Energy =                       -266.9497404897143156

Computation Completed


Properties will be evaluated at   0.000000,   0.000000,   0.000000 [a0]

Properties computed using the SCF density matrix

  Nuclear Dipole Moment: [e a0]
     X:  -120.7162      Y:    -6.8250      Z:     0.0023

  Electronic Dipole Moment: [e a0]
     X:   120.4423      Y:     6.0571      Z:    -0.0024

  Dipole Moment: [e a0]
     X:    -0.2739      Y:    -0.7679      Z:    -0.0002     Total:     0.8153

  Dipole Moment: [D]
     X:    -0.6961      Y:    -1.9518      Z:    -0.0004     Total:     2.0723


*** tstop() called on r282 at Fri Sep 10 18:13:35 2021
Module time:
	user time   =      23.58 seconds =       0.39 minutes
	system time =       0.53 seconds =       0.01 minutes
	total time  =         24 seconds =       0.40 minutes
Total time:
	user time   =      65.78 seconds =       1.10 minutes
	system time =       1.60 seconds =       0.03 minutes
	total time  =         67 seconds =       1.12 minutes

  //>>>>>>>>>>>>>>>>>>>>>>>>>>>>>>>>>>>//
  //            Monomer B HF           //
  //<<<<<<<<<<<<<<<<<<<<<<<<<<<<<<<<<<<//


*** tstart() called on r282
*** at Fri Sep 10 18:13:35 2021

   => Loading Basis Set <=

    Name: JUN-CC-PVTZ
    Role: ORBITAL
    Keyword: BASIS
    atoms 1-3, 12     entry C          line   217 file /home/r08543048/miniconda3/share/psi4/basis/jun-cc-pvtz.gbs 
    atoms 4-5, 13     entry O          line   305 file /home/r08543048/miniconda3/share/psi4/basis/jun-cc-pvtz.gbs 
    atoms 6-11, 15-17 entry H          line    36 file /home/r08543048/miniconda3/share/psi4/basis/jun-cc-pvtz.gbs 
    atoms 14          entry N          line   261 file /home/r08543048/miniconda3/share/psi4/basis/jun-cc-pvtz.gbs 


         ---------------------------------------------------------
                                   SCF
               by Justin Turney, Rob Parrish, Andy Simmonett
                          and Daniel G. A. Smith
                              RHF Reference
                        1 Threads,  20980 MiB Core
         ---------------------------------------------------------

  ==> Geometry <==

    Molecular point group: c1
    Full point group: C1

    Geometry (in Angstrom), charge = 0, multiplicity = 1:

       Center              X                  Y                   Z               Mass       
    ------------   -----------------  -----------------  -----------------  -----------------
      Gh(C)          -3.345941334023     0.774887564073    -0.000150643278    12.000000000000
      Gh(C)          -2.517856334023    -0.497339435927    -0.000168643278    12.000000000000
      Gh(C)          -1.035727334023    -0.235630435927     0.000126356722    12.000000000000
      Gh(O)          -0.546793334023     0.887514564073     0.000378356722    15.994914619570
      Gh(O)          -0.328404334023    -1.358021435927     0.000015356722    15.994914619570
      Gh(H)          -3.127346334023     1.379173564073    -0.878056643278     1.007825032230
      Gh(H)          -4.407807334023     0.535269564073    -0.000362643278     1.007825032230
      Gh(H)          -3.127647334023     1.378951564073     0.877983356722     1.007825032230
      Gh(H)          -2.733403334023    -1.119432435927    -0.870448643278     1.007825032230
      Gh(H)          -2.733700334023    -1.119647435927     0.869884356722     1.007825032230
      Gh(H)           0.648373665977    -1.153407435927     0.000215356722     1.007825032230
         C            2.905754665977     0.101987564073    -0.000168643278    12.000000000000
         O            2.330231665977    -0.988675435927     0.000052356722    15.994914619570
         N            2.291293665977     1.290472564073    -0.000099643278    14.003074004430
         H            2.834409665977     2.134210564073    -0.000250643278     1.007825032230
         H            1.271236665977     1.321455564073     0.000126356722     1.007825032230
         H            4.000541665977     0.157975564073    -0.000480643278     1.007825032230

  Running in c1 symmetry.

  Rotational constants: A =      0.15403  B =      0.02931  C =      0.02485 [cm^-1]
  Rotational constants: A =   4617.74325  B =    878.57862  C =    744.84087 [MHz]
  Nuclear repulsion =   71.155020304845380

  Charge       = 0
  Multiplicity = 1
  Electrons    = 24
  Nalpha       = 12
  Nbeta        = 12

  ==> Algorithm <==

  SCF Algorithm Type is DF.
  DIIS enabled.
  MOM disabled.
  Fractional occupation disabled.
  Guess Type is SAD.
  Energy threshold   = 1.00e-08
  Density threshold  = 1.00e-08
  Integral threshold = 0.00e+00

  ==> Primary Basis <==

  Basis Set: JUN-CC-PVTZ
    Blend: JUN-CC-PVTZ
    Number of shells: 158
    Number of basis function: 438
    Number of Cartesian functions: 495
    Spherical Harmonics?: true
    Max angular momentum: 3

   => Loading Basis Set <=

    Name: (JUN-CC-PVTZ AUX)
    Role: JKFIT
    Keyword: DF_BASIS_SCF
    atoms 1-3, 12     entry C          line   152 file /home/r08543048/miniconda3/share/psi4/basis/jun-cc-pvtz-jkfit.gbs 
    atoms 4-5, 13     entry O          line   272 file /home/r08543048/miniconda3/share/psi4/basis/jun-cc-pvtz-jkfit.gbs 
    atoms 6-11, 15-17 entry H          line    70 file /home/r08543048/miniconda3/share/psi4/basis/jun-cc-pvtz-jkfit.gbs 
    atoms 14          entry N          line   212 file /home/r08543048/miniconda3/share/psi4/basis/jun-cc-pvtz-jkfit.gbs 

  ==> Pre-Iterations <==

   -------------------------------------------------------
    Irrep   Nso     Nmo     Nalpha   Nbeta   Ndocc  Nsocc
   -------------------------------------------------------
     A        438     438       0       0       0       0
   -------------------------------------------------------
    Total     438     438      12      12      12       0
   -------------------------------------------------------

  ==> Integral Setup <==

  ==> DiskDFJK: Density-Fitted J/K Matrices <==

    J tasked:                  Yes
    K tasked:                  Yes
    wK tasked:                  No
    OpenMP threads:              1
    Integrals threads:           1
    Memory [MiB]:            15735
    Algorithm:                Core
    Integral Cache:           LOAD
    Schwarz Cutoff:          1E-12
    Fitting Condition:       1E-10

   => Auxiliary Basis Set <=

  Basis Set: (JUN-CC-PVTZ AUX)
    Blend: JUN-CC-PVTZ-JKFIT
    Number of shells: 322
    Number of basis function: 1030
    Number of Cartesian functions: 1243
    Spherical Harmonics?: true
    Max angular momentum: 4

  Minimum eigenvalue in the overlap matrix is 3.5785242130E-05.
  Using Symmetric Orthogonalization.

  SCF Guess: Superposition of Atomic Densities via on-the-fly atomic UHF.

  ==> Iterations <==

                           Total Energy        Delta E     RMS |[F,P]|

   @DF-RHF iter SAD:  -168.21753858640503   -1.68218e+02   0.00000e+00 
   @DF-RHF iter   1:  -168.87785180820012   -6.60313e-01   1.22417e-03 DIIS
   @DF-RHF iter   2:  -168.95392762554968   -7.60758e-02   8.57975e-04 DIIS
   @DF-RHF iter   3:  -169.00025729834542   -4.63297e-02   1.20824e-04 DIIS
   @DF-RHF iter   4:  -169.00173381268920   -1.47651e-03   5.12050e-05 DIIS
   @DF-RHF iter   5:  -169.00203609575840   -3.02283e-04   1.05113e-05 DIIS
   @DF-RHF iter   6:  -169.00206710345572   -3.10077e-05   5.00516e-06 DIIS
   @DF-RHF iter   7:  -169.00207358408454   -6.48063e-06   2.02412e-06 DIIS
   @DF-RHF iter   8:  -169.00207471603258   -1.13195e-06   6.19755e-07 DIIS
   @DF-RHF iter   9:  -169.00207482634983   -1.10317e-07   1.71638e-07 DIIS
   @DF-RHF iter  10:  -169.00207483513498   -8.78515e-09   4.14501e-08 DIIS
   @DF-RHF iter  11:  -169.00207483555147   -4.16492e-10   7.20334e-09 DIIS
  Energy and wave function converged.


  ==> Post-Iterations <==

    Orbital Energies [Eh]
    ---------------------

    Doubly Occupied:                                                      

       1A    -20.525759     2A    -15.603009     3A    -11.356344  
       4A     -1.373846     5A     -1.227817     6A     -0.854869  
       7A     -0.758688     8A     -0.677133     9A     -0.601028  
      10A     -0.571347    11A     -0.434595    12A     -0.421052  

    Virtual:                                                              

      13A      0.030869    14A      0.044947    15A      0.057888  
      16A      0.062320    17A      0.065588    18A      0.075451  
      19A      0.083553    20A      0.100030    21A      0.103995  
      22A      0.105965    23A      0.106944    24A      0.111679  
      25A      0.129652    26A      0.136287    27A      0.152852  
      28A      0.155653    29A      0.158691    30A      0.166574  
      31A      0.174872    32A      0.178999    33A      0.189649  
      34A      0.202009    35A      0.211223    36A      0.216638  
      37A      0.223059    38A      0.228692    39A      0.247126  
      40A      0.250708    41A      0.256395    42A      0.261844  
      43A      0.268845    44A      0.277286    45A      0.290249  
      46A      0.291629    47A      0.298269    48A      0.306936  
      49A      0.328269    50A      0.336270    51A      0.341905  
      52A      0.350656    53A      0.357597    54A      0.373642  
      55A      0.380673    56A      0.385831    57A      0.387778  
      58A      0.403160    59A      0.407858    60A      0.423097  
      61A      0.432949    62A      0.436408    63A      0.444399  
      64A      0.445818    65A      0.450633    66A      0.485106  
      67A      0.486680    68A      0.490790    69A      0.496871  
      70A      0.510347    71A      0.516323    72A      0.516929  
      73A      0.528082    74A      0.544844    75A      0.551714  
      76A      0.559018    77A      0.563949    78A      0.568847  
      79A      0.577375    80A      0.590443    81A      0.599364  
      82A      0.611228    83A      0.616206    84A      0.633853  
      85A      0.635146    86A      0.653346    87A      0.656735  
      88A      0.677768    89A      0.689832    90A      0.695156  
      91A      0.715064    92A      0.752525    93A      0.777792  
      94A      0.779465    95A      0.781791    96A      0.782663  
      97A      0.806121    98A      0.818518    99A      0.839126  
     100A      0.860433   101A      0.863549   102A      0.883981  
     103A      0.894602   104A      0.899440   105A      0.916139  
     106A      0.929921   107A      0.933737   108A      0.951354  
     109A      0.975832   110A      0.995911   111A      0.998032  
     112A      1.001659   113A      1.010329   114A      1.035706  
     115A      1.038818   116A      1.054309   117A      1.059069  
     118A      1.061224   119A      1.074795   120A      1.076020  
     121A      1.093846   122A      1.097012   123A      1.113527  
     124A      1.130893   125A      1.141426   126A      1.153247  
     127A      1.155342   128A      1.187420   129A      1.190255  
     130A      1.207498   131A      1.220394   132A      1.223240  
     133A      1.249948   134A      1.254565   135A      1.264442  
     136A      1.278941   137A      1.281594   138A      1.291567  
     139A      1.293825   140A      1.314399   141A      1.319176  
     142A      1.341247   143A      1.349427   144A      1.360030  
     145A      1.385954   146A      1.392497   147A      1.394417  
     148A      1.400937   149A      1.417642   150A      1.421183  
     151A      1.459264   152A      1.485038   153A      1.490206  
     154A      1.509113   155A      1.521975   156A      1.523825  
     157A      1.576077   158A      1.592296   159A      1.594519  
     160A      1.600215   161A      1.612684   162A      1.630657  
     163A      1.647475   164A      1.671393   165A      1.696606  
     166A      1.704796   167A      1.741137   168A      1.759300  
     169A      1.765918   170A      1.772523   171A      1.785703  
     172A      1.798208   173A      1.806728   174A      1.829871  
     175A      1.883370   176A      1.906051   177A      1.914943  
     178A      1.928236   179A      1.949166   180A      1.964235  
     181A      1.977373   182A      2.009530   183A      2.056330  
     184A      2.069134   185A      2.101788   186A      2.133450  
     187A      2.140440   188A      2.166498   189A      2.174642  
     190A      2.183013   191A      2.245251   192A      2.276239  
     193A      2.315719   194A      2.321292   195A      2.359094  
     196A      2.373638   197A      2.402066   198A      2.411456  
     199A      2.418901   200A      2.460514   201A      2.522657  
     202A      2.527440   203A      2.544865   204A      2.585466  
     205A      2.621259   206A      2.627757   207A      2.692876  
     208A      2.735385   209A      2.761876   210A      2.769368  
     211A      2.785052   212A      2.790439   213A      2.882430  
     214A      2.914184   215A      2.919529   216A      2.985891  
     217A      3.008810   218A      3.017726   219A      3.048603  
     220A      3.064979   221A      3.127835   222A      3.148003  
     223A      3.155711   224A      3.176092   225A      3.213825  
     226A      3.322438   227A      3.374929   228A      3.411235  
     229A      3.426109   230A      3.429148   231A      3.463760  
     232A      3.464539   233A      3.474110   234A      3.485807  
     235A      3.539590   236A      3.542290   237A      3.548905  
     238A      3.589727   239A      3.600530   240A      3.606796  
     241A      3.615070   242A      3.617449   243A      3.638912  
     244A      3.683823   245A      3.698955   246A      3.702530  
     247A      3.726826   248A      3.747785   249A      3.789537  
     250A      3.798841   251A      3.816562   252A      3.821504  
     253A      3.844076   254A      3.853739   255A      3.857643  
     256A      3.883796   257A      3.896865   258A      3.906159  
     259A      3.910012   260A      3.961269   261A      3.961534  
     262A      3.992790   263A      4.014181   264A      4.027640  
     265A      4.067786   266A      4.096013   267A      4.123596  
     268A      4.132577   269A      4.163015   270A      4.184871  
     271A      4.185700   272A      4.225285   273A      4.231404  
     274A      4.250498   275A      4.260800   276A      4.278406  
     277A      4.310618   278A      4.336296   279A      4.340854  
     280A      4.385174   281A      4.389483   282A      4.399284  
     283A      4.411925   284A      4.462544   285A      4.466174  
     286A      4.484359   287A      4.487231   288A      4.497272  
     289A      4.504388   290A      4.530515   291A      4.557348  
     292A      4.590337   293A      4.633506   294A      4.652511  
     295A      4.656447   296A      4.669624   297A      4.689743  
     298A      4.694992   299A      4.722018   300A      4.736310  
     301A      4.744976   302A      4.750611   303A      4.765947  
     304A      4.781303   305A      4.801857   306A      4.814387  
     307A      4.823113   308A      4.828107   309A      4.845149  
     310A      4.872079   311A      4.880873   312A      4.905779  
     313A      4.926545   314A      4.932850   315A      4.951406  
     316A      4.960078   317A      4.982602   318A      4.987278  
     319A      5.004968   320A      5.016373   321A      5.021491  
     322A      5.038410   323A      5.063824   324A      5.075524  
     325A      5.083173   326A      5.105772   327A      5.149926  
     328A      5.178309   329A      5.200660   330A      5.226541  
     331A      5.244082   332A      5.262667   333A      5.273163  
     334A      5.281513   335A      5.311058   336A      5.335431  
     337A      5.428583   338A      5.459335   339A      5.486886  
     340A      5.528660   341A      5.537155   342A      5.569950  
     343A      5.570553   344A      5.654760   345A      5.694274  
     346A      5.730413   347A      5.750733   348A      5.762848  
     349A      5.792623   350A      5.828191   351A      5.900820  
     352A      5.918570   353A      5.970884   354A      5.992849  
     355A      6.008041   356A      6.025872   357A      6.039574  
     358A      6.088029   359A      6.129255   360A      6.181559  
     361A      6.195391   362A      6.238390   363A      6.252982  
     364A      6.308647   365A      6.369726   366A      6.409438  
     367A      6.437247   368A      6.446925   369A      6.452904  
     370A      6.480037   371A      6.545730   372A      6.558977  
     373A      6.645000   374A      6.689236   375A      6.760439  
     376A      6.766139   377A      6.815528   378A      6.846057  
     379A      6.901539   380A      7.005697   381A      7.024196  
     382A      7.156835   383A      7.191963   384A      7.219749  
     385A      7.222778   386A      7.239154   387A      7.313973  
     388A      7.429276   389A      7.456284   390A      7.473037  
     391A      7.530193   392A      7.577188   393A      7.614692  
     394A      7.665129   395A      7.685454   396A      7.727493  
     397A      7.794625   398A      7.799298   399A      7.839571  
     400A      7.871338   401A      7.917662   402A      7.986985  
     403A      7.990141   404A      8.058323   405A      8.168892  
     406A      8.267347   407A      8.547720   408A      8.692039  
     409A      8.898534   410A      9.164935   411A      9.455306  
     412A      9.693252   413A      9.756808   414A      9.783492  
     415A      9.869288   416A      9.900659   417A      9.917790  
     418A      9.978692   419A      9.979543   420A     10.160897  
     421A     10.406637   422A     10.539916   423A     11.049021  
     424A     11.411252   425A     11.572990   426A     11.630465  
     427A     12.026734   428A     12.695261   429A     13.163583  
     430A     13.772910   431A     14.048450   432A     14.248080  
     433A     15.989240   434A     43.228273   435A     45.100208  
     436A     45.827560   437A     61.035697   438A     61.962853  

    Final Occupation by Irrep:
              A 
    DOCC [    12 ]

  @DF-RHF Final Energy:  -169.00207483555147

   => Energetics <=

    Nuclear Repulsion Energy =             71.1550203048453795
    One-Electron Energy =                -371.5032142717309398
    Two-Electron Energy =                 131.3461191313340919
    Total Energy =                       -169.0020748355514684

Computation Completed


Properties will be evaluated at   0.000000,   0.000000,   0.000000 [a0]

Properties computed using the SCF density matrix

  Nuclear Dipole Moment: [e a0]
     X:   113.8024      Y:    10.1090      Z:    -0.0036

  Electronic Dipole Moment: [e a0]
     X:  -113.4187      Y:    -8.3791      Z:     0.0034

  Dipole Moment: [e a0]
     X:     0.3836      Y:     1.7299      Z:    -0.0002     Total:     1.7719

  Dipole Moment: [D]
     X:     0.9751      Y:     4.3970      Z:    -0.0005     Total:     4.5038


*** tstop() called on r282 at Fri Sep 10 18:13:55 2021
Module time:
	user time   =      19.19 seconds =       0.32 minutes
	system time =       0.45 seconds =       0.01 minutes
	total time  =         20 seconds =       0.33 minutes
Total time:
	user time   =      84.97 seconds =       1.42 minutes
	system time =       2.05 seconds =       0.03 minutes
	total time  =         87 seconds =       1.45 minutes
  Constructing Basis Sets for SAPT...

   => Loading Basis Set <=

    Name: (JUN-CC-PVTZ AUX)
    Role: RIFIT
    Keyword: DF_BASIS_SAPT
    atoms 1-3, 12     entry C          line   132 file /home/r08543048/miniconda3/share/psi4/basis/jun-cc-pvtz-ri.gbs 
    atoms 4-5, 13     entry O          line   244 file /home/r08543048/miniconda3/share/psi4/basis/jun-cc-pvtz-ri.gbs 
    atoms 6-11, 15-17 entry H          line    30 file /home/r08543048/miniconda3/share/psi4/basis/jun-cc-pvtz-ri.gbs 
    atoms 14          entry N          line   188 file /home/r08543048/miniconda3/share/psi4/basis/jun-cc-pvtz-ri.gbs 


  //>>>>>>>>>>>>>>>>>>>>>>>>>>>>>>>>>>>//
  //               SAPT0               //
  //<<<<<<<<<<<<<<<<<<<<<<<<<<<<<<<<<<<//


*** tstart() called on r282
*** at Fri Sep 10 18:13:55 2021

        SAPT0  
    Ed Hohenstein
     6 June 2009

      Orbital Information
  --------------------------
    NSO        =       438
    NMO        =       438
    NRI        =      1046
    NOCC A     =        20
    NOCC B     =        12
    FOCC A     =         0
    FOCC B     =         0
    NVIR A     =       418
    NVIR B     =       426

    Elst10,r            =    -0.046415394478 [Eh]
    Exch10              =     0.044431066274 [Eh]
    Exch10 (S^2)        =     0.043775806108 [Eh]

    Iter     Energy [mEh]          dE [mEh]         Residual      Time [s]
       1      -8.47819807       8.478198074      19.500086551             1
       2      -9.73374767       1.255549599      10.606605754             2
       3     -10.49651813       0.762770458       2.539748107             2
       4     -10.41983674      -0.076681391       1.003841089             3
       5     -10.40915877      -0.010677968       0.286655223             4
       6     -10.41785065       0.008691873       0.090428365             4
       7     -10.41804419       0.000193548       0.024076837             5
       8     -10.41743065      -0.000613539       0.006713710             6
       9     -10.41743443       0.000003774       0.002508640             7
      10     -10.41747250       0.000038073       0.000693726             7
      11     -10.41747445       0.000001946       0.000146213             8
      12     -10.41747227      -0.000002178       0.000042561             9
      13     -10.41747207      -0.000000197       0.000011451             9
      14     -10.41747225       0.000000181       0.000002127            10
      15     -10.41747224      -0.000000013       0.000000466            11

    CHF Iterations converged


    Iter     Energy [mEh]          dE [mEh]         Residual      Time [s]
       1     -11.17221617      11.172216172      24.227043792             0
       2     -13.14057995       1.968363782      13.675006771             1
       3     -14.29555861       1.154978658       3.345789203             2
       4     -14.19531749      -0.100241127       1.399059185             2
       5     -14.17318989      -0.022127597       0.387179941             3
       6     -14.18771773       0.014527842       0.122882950             3
       7     -14.18860101       0.000883281       0.031409702             4
       8     -14.18770445      -0.000896564       0.009056049             5
       9     -14.18766248      -0.000041963       0.002658455             5
      10     -14.18772325       0.000060768       0.000585892             6
      11     -14.18772161      -0.000001645       0.000125994             6
      12     -14.18771945      -0.000002158       0.000026679             7
      13     -14.18771987       0.000000423       0.000005232             8
      14     -14.18771982      -0.000000052       0.000000869             8

    CHF Iterations converged

    Ind20,r (A<-B)      =    -0.010417472240 [Eh]
    Ind20,r (B<-A)      =    -0.014187719819 [Eh]
    Ind20,r             =    -0.024605192059 [Eh]
    Exch-Ind20,r (A<-B) =     0.005902507734 [Eh]
    Exch-Ind20,r (B<-A) =     0.006953039982 [Eh]
    Exch-Ind20,r        =     0.012855547716 [Eh]
    Disp20              =    -0.014747598786 [Eh]
    Disp20 (SS)         =    -0.007373799393 [Eh]
    Disp20 (OS)         =    -0.007373799393 [Eh]
    Exch-Disp20         =     0.002905232089 [Eh]
    Exch-Disp20 (SS)    =     0.001827329718 [Eh]
    Exch-Disp20 (OS)    =     0.001077902371 [Eh]

    SAPT Results 
  --------------------------------------------------------------------------------------------------------
    Electrostatics                -46.41539448 [mEh]     -29.12609976 [kcal/mol]    -121.86360141 [kJ/mol]
      Elst10,r                    -46.41539448 [mEh]     -29.12609976 [kcal/mol]    -121.86360141 [kJ/mol]

    Exchange                       44.43106627 [mEh]      27.88091502 [kcal/mol]     116.65374843 [kJ/mol]
      Exch10                       44.43106627 [mEh]      27.88091502 [kcal/mol]     116.65374843 [kJ/mol]
      Exch10(S^2)                  43.77580611 [mEh]      27.46973306 [kcal/mol]     114.93336310 [kJ/mol]

    Induction                     -20.55224246 [mEh]     -12.89672685 [kcal/mol]     -53.95990515 [kJ/mol]
      Ind20,r                     -24.60519206 [mEh]     -15.43999112 [kcal/mol]     -64.60092285 [kJ/mol]
      Exch-Ind20,r                 12.85554772 [mEh]       8.06697798 [kcal/mol]      33.75223588 [kJ/mol]
      delta HF,r (2)               -8.80259812 [mEh]      -5.52371371 [kcal/mol]     -23.11121818 [kJ/mol]

    Dispersion                    -11.84236670 [mEh]      -7.43119729 [kcal/mol]     -31.09212948 [kJ/mol]
      Disp20                      -14.74759879 [mEh]      -9.25425795 [kcal/mol]     -38.71981528 [kJ/mol]
      Exch-Disp20                   2.90523209 [mEh]       1.82306066 [kcal/mol]       7.62768580 [kJ/mol]
      Disp20 (SS)                  -7.37379939 [mEh]      -4.62712898 [kcal/mol]     -19.35990764 [kJ/mol]
      Disp20 (OS)                  -7.37379939 [mEh]      -4.62712898 [kcal/mol]     -19.35990764 [kJ/mol]
      Exch-Disp20 (SS)              1.82732972 [mEh]       1.14666671 [kcal/mol]       4.79765351 [kJ/mol]
      Exch-Disp20 (OS)              1.07790237 [mEh]       0.67639395 [kcal/mol]       2.83003229 [kJ/mol]

  Total HF                        -22.53657067 [mEh]     -14.14191160 [kcal/mol]     -59.16975813 [kJ/mol]
  Total SAPT0                     -34.37893736 [mEh]     -21.57310889 [kcal/mol]     -90.26188762 [kJ/mol]

  Special recipe for scaled SAPT0 (see Manual):
    Electrostatics sSAPT0         -46.41539448 [mEh]     -29.12609976 [kcal/mol]    -121.86360141 [kJ/mol]
    Exchange sSAPT0                44.43106627 [mEh]      27.88091502 [kcal/mol]     116.65374843 [kJ/mol]
    Induction sSAPT0              -19.96627164 [mEh]     -12.52902461 [kcal/mol]     -52.42143896 [kJ/mol]
    Dispersion sSAPT0             -11.70994284 [mEh]      -7.34810007 [kcal/mol]     -30.74445068 [kJ/mol]
  Total sSAPT0                    -33.66054268 [mEh]     -21.12230942 [kcal/mol]     -88.37574263 [kJ/mol]
  --------------------------------------------------------------------------------------------------------

*** tstop() called on r282 at Fri Sep 10 18:15:13 2021
Module time:
	user time   =      65.71 seconds =       1.10 minutes
	system time =      12.44 seconds =       0.21 minutes
	total time  =         78 seconds =       1.30 minutes
Total time:
	user time   =     150.79 seconds =       2.51 minutes
	system time =      14.49 seconds =       0.24 minutes
	total time  =        165 seconds =       2.75 minutes

    Psi4 stopped on: Friday, 10 September 2021 06:15PM
    Psi4 wall time for execution: 0:02:45.51

*** Psi4 exiting successfully. Buy a developer a beer!
