
    -----------------------------------------------------------------------
          Psi4: An Open-Source Ab Initio Electronic Structure Package
                               Psi4 1.3.2 release

                         Git: Rev {HEAD} ecbda83 


    R. M. Parrish, L. A. Burns, D. G. A. Smith, A. C. Simmonett,
    A. E. DePrince III, E. G. Hohenstein, U. Bozkaya, A. Yu. Sokolov,
    R. Di Remigio, R. M. Richard, J. F. Gonthier, A. M. James,
    H. R. McAlexander, A. Kumar, M. Saitow, X. Wang, B. P. Pritchard,
    P. Verma, H. F. Schaefer III, K. Patkowski, R. A. King, E. F. Valeev,
    F. A. Evangelista, J. M. Turney, T. D. Crawford, and C. D. Sherrill,
    J. Chem. Theory Comput. 13(7) pp 3185--3197 (2017).
    (doi: 10.1021/acs.jctc.7b00174)


                         Additional Contributions by
    P. Kraus, H. Kruse, M. H. Lechner, M. C. Schieber, R. A. Shaw,
    A. Alenaizan, R. Galvelis, Z. L. Glick, S. Lehtola, and J. P. Misiewicz

    -----------------------------------------------------------------------


    Psi4 started on: Saturday, 11 September 2021 12:47AM

    Process ID: 57395
    Host:       r282
    PSIDATADIR: /home/r08543048/miniconda3/share/psi4
    Memory:     500.0 MiB
    Threads:    1
    
  ==> Input File <==

--------------------------------------------------------------------------
# Any line starting with the # character is a comment line
#! Sample  computation

memory 22 gb

molecule Dimer {
0 1
 C  -3.738164   -1.004581   -0.090040
 C  -3.018874    0.281318    0.275942
 C  -1.546565    0.225692   -0.028918
 O  -0.965142   -0.720329   -0.519235
 O  -0.928916    1.375612    0.313623
 H  -3.323963   -1.848237    0.458045
 H  -4.798436   -0.925837    0.143359
 H  -3.631147   -1.218150   -1.151420
 H  -3.122258    0.514807    1.336957
 H  -3.428220    1.139657   -0.259561
 H   0.017821    1.279592    0.085117
  
  
  
  
  
  
    
    
 --
0 1
 C   2.292882    1.795565   -0.185604
 C   2.157056    0.494170   -0.471682
 C   2.328284   -0.619823    0.509156
 C   3.465380   -1.554983    0.095497
 H   2.176177    2.555442   -0.946371
 H   2.534796    2.122903    0.818277
 H   1.916064    0.202693   -1.490214
 H   2.520410   -0.207010    1.501691
 H   1.395795   -1.187160    0.558501
 H   3.277467   -1.974195   -0.893131
 H   4.413531   -1.019054    0.059899
 H   3.564428   -2.381878    0.797636
   
   
   




units angstrom

no_reorient
symmetry c1
}

set globals{
  basis jun-cc-pvtz
}

energy('sapt0')


--------------------------------------------------------------------------

  Memory set to  20.489 GiB by Python driver.

  //>>>>>>>>>>>>>>>>>>>>>>>>>>>>>>>>>>>//
  //              Dimer HF             //
  //<<<<<<<<<<<<<<<<<<<<<<<<<<<<<<<<<<<//


*** tstart() called on r282
*** at Sat Sep 11 00:47:41 2021

   => Loading Basis Set <=

    Name: JUN-CC-PVTZ
    Role: ORBITAL
    Keyword: BASIS
    atoms 1-3, 12-15  entry C          line   217 file /home/r08543048/miniconda3/share/psi4/basis/jun-cc-pvtz.gbs 
    atoms 4-5         entry O          line   305 file /home/r08543048/miniconda3/share/psi4/basis/jun-cc-pvtz.gbs 
    atoms 6-11, 16-23 entry H          line    36 file /home/r08543048/miniconda3/share/psi4/basis/jun-cc-pvtz.gbs 


         ---------------------------------------------------------
                                   SCF
               by Justin Turney, Rob Parrish, Andy Simmonett
                          and Daniel G. A. Smith
                              RHF Reference
                        1 Threads,  20980 MiB Core
         ---------------------------------------------------------

  ==> Geometry <==

    Molecular point group: c1
    Full point group: C1

    Geometry (in Angstrom), charge = 0, multiplicity = 1:

       Center              X                  Y                   Z               Mass       
    ------------   -----------------  -----------------  -----------------  -----------------
         C           -3.711450899208    -1.027025447909    -0.082278415266    12.000000000000
         C           -2.992160899208     0.258873552091     0.283703584734    12.000000000000
         C           -1.519851899208     0.203247552091    -0.021156415266    12.000000000000
         O           -0.938428899208    -0.742773447909    -0.511473415266    15.994914619570
         O           -0.902202899208     1.353167552091     0.321384584734    15.994914619570
         H           -3.297249899208    -1.870681447909     0.465806584734     1.007825032230
         H           -4.771722899208    -0.948281447909     0.151120584734     1.007825032230
         H           -3.604433899208    -1.240594447909    -1.143658415266     1.007825032230
         H           -3.095544899208     0.492362552091     1.344718584734     1.007825032230
         H           -3.401506899208     1.117212552091    -0.251799415266     1.007825032230
         H            0.044534100792     1.257147552091     0.092878584734     1.007825032230
         C            2.319595100792     1.773120552091    -0.177842415266    12.000000000000
         C            2.183769100792     0.471725552091    -0.463920415266    12.000000000000
         C            2.354997100792    -0.642267447909     0.516917584734    12.000000000000
         C            3.492093100792    -1.577427447909     0.103258584734    12.000000000000
         H            2.202890100792     2.532997552091    -0.938609415266     1.007825032230
         H            2.561509100792     2.100458552091     0.826038584734     1.007825032230
         H            1.942777100792     0.180248552091    -1.482452415266     1.007825032230
         H            2.547123100792    -0.229454447909     1.509452584734     1.007825032230
         H            1.422508100792    -1.209604447909     0.566262584734     1.007825032230
         H            3.304180100792    -1.996639447909    -0.885369415266     1.007825032230
         H            4.440244100792    -1.041498447909     0.067660584734     1.007825032230
         H            3.591141100792    -2.404322447909     0.805397584734     1.007825032230

  Running in c1 symmetry.

  Rotational constants: A =      0.09149  B =      0.02049  C =      0.01759 [cm^-1]
  Rotational constants: A =   2742.70376  B =    614.21651  C =    527.48469 [MHz]
  Nuclear repulsion =  441.628008465880782

  Charge       = 0
  Multiplicity = 1
  Electrons    = 72
  Nalpha       = 36
  Nbeta        = 36

  ==> Algorithm <==

  SCF Algorithm Type is DF.
  DIIS enabled.
  MOM disabled.
  Fractional occupation disabled.
  Guess Type is SAD.
  Energy threshold   = 1.00e-08
  Density threshold  = 1.00e-08
  Integral threshold = 0.00e+00

  ==> Primary Basis <==

  Basis Set: JUN-CC-PVTZ
    Blend: JUN-CC-PVTZ
    Number of shells: 201
    Number of basis function: 547
    Number of Cartesian functions: 615
    Spherical Harmonics?: true
    Max angular momentum: 3

   => Loading Basis Set <=

    Name: (JUN-CC-PVTZ AUX)
    Role: JKFIT
    Keyword: DF_BASIS_SCF
    atoms 1-3, 12-15  entry C          line   152 file /home/r08543048/miniconda3/share/psi4/basis/jun-cc-pvtz-jkfit.gbs 
    atoms 4-5         entry O          line   272 file /home/r08543048/miniconda3/share/psi4/basis/jun-cc-pvtz-jkfit.gbs 
    atoms 6-11, 16-23 entry H          line    70 file /home/r08543048/miniconda3/share/psi4/basis/jun-cc-pvtz-jkfit.gbs 

  ==> Pre-Iterations <==

   -------------------------------------------------------
    Irrep   Nso     Nmo     Nalpha   Nbeta   Ndocc  Nsocc
   -------------------------------------------------------
     A        547     547       0       0       0       0
   -------------------------------------------------------
    Total     547     547      36      36      36       0
   -------------------------------------------------------

  ==> Integral Setup <==

  ==> DiskDFJK: Density-Fitted J/K Matrices <==

    J tasked:                  Yes
    K tasked:                  Yes
    wK tasked:                  No
    OpenMP threads:              1
    Integrals threads:           1
    Memory [MiB]:            15735
    Algorithm:                Core
    Integral Cache:           SAVE
    Schwarz Cutoff:          1E-12
    Fitting Condition:       1E-10

   => Auxiliary Basis Set <=

  Basis Set: (JUN-CC-PVTZ AUX)
    Blend: JUN-CC-PVTZ-JKFIT
    Number of shells: 401
    Number of basis function: 1275
    Number of Cartesian functions: 1534
    Spherical Harmonics?: true
    Max angular momentum: 4

  Minimum eigenvalue in the overlap matrix is 3.1156051197E-05.
  Using Symmetric Orthogonalization.

  SCF Guess: Superposition of Atomic Densities via on-the-fly atomic UHF.

  ==> Iterations <==

                           Total Energy        Delta E     RMS |[F,P]|

   @DF-RHF iter SAD:  -421.58994111737547   -4.21590e+02   0.00000e+00 
   @DF-RHF iter   1:  -422.76410025677546   -1.17416e+00   1.49697e-03 DIIS
   @DF-RHF iter   2:  -423.04141022601465   -2.77310e-01   7.89170e-04 DIIS
   @DF-RHF iter   3:  -423.11342893064165   -7.20187e-02   1.61065e-04 DIIS
   @DF-RHF iter   4:  -423.11816165559151   -4.73272e-03   7.57634e-05 DIIS
   @DF-RHF iter   5:  -423.11909899019781   -9.37335e-04   1.34072e-05 DIIS
   @DF-RHF iter   6:  -423.11915158061015   -5.25904e-05   6.44313e-06 DIIS
   @DF-RHF iter   7:  -423.11916162352117   -1.00429e-05   2.14130e-06 DIIS
   @DF-RHF iter   8:  -423.11916360828758   -1.98477e-06   8.57444e-07 DIIS
   @DF-RHF iter   9:  -423.11916394305229   -3.34765e-07   2.37064e-07 DIIS
   @DF-RHF iter  10:  -423.11916396724746   -2.41952e-08   6.57825e-08 DIIS
   @DF-RHF iter  11:  -423.11916396873067   -1.48322e-09   2.02499e-08 DIIS
   @DF-RHF iter  12:  -423.11916396883754   -1.06866e-10   6.58325e-09 DIIS
  Energy and wave function converged.


  ==> Post-Iterations <==

    Orbital Energies [Eh]
    ---------------------

    Doubly Occupied:                                                      

       1A    -20.597846     2A    -20.541967     3A    -11.378978  
       4A    -11.242593     5A    -11.241492     6A    -11.227012  
       7A    -11.223075     8A    -11.218388     9A    -11.214030  
      10A     -1.452017    11A     -1.350166    12A     -1.087362  
      13A     -1.062615    14A     -0.993442    15A     -0.909800  
      16A     -0.858928    17A     -0.786800    18A     -0.761547  
      19A     -0.698233    20A     -0.681249    21A     -0.654465  
      22A     -0.648336    23A     -0.611075    24A     -0.592869  
      25A     -0.586181    26A     -0.582992    27A     -0.539107  
      28A     -0.530464    29A     -0.522158    30A     -0.518414  
      31A     -0.500620    32A     -0.487854    33A     -0.480932  
      34A     -0.473608    35A     -0.445548    36A     -0.369479  

    Virtual:                                                              

      37A      0.050133    38A      0.051434    39A      0.054270  
      40A      0.059895    41A      0.063942    42A      0.074146  
      43A      0.078301    44A      0.085012    45A      0.094797  
      46A      0.097740    47A      0.100672    48A      0.107612  
      49A      0.108830    50A      0.113271    51A      0.123978  
      52A      0.129464    53A      0.134267    54A      0.141429  
      55A      0.146877    56A      0.152322    57A      0.166839  
      58A      0.170130    59A      0.175916    60A      0.182356  
      61A      0.195922    62A      0.199492    63A      0.202893  
      64A      0.213498    65A      0.215514    66A      0.224021  
      67A      0.231933    68A      0.236223    69A      0.245407  
      70A      0.256679    71A      0.263844    72A      0.278142  
      73A      0.286013    74A      0.287398    75A      0.290439  
      76A      0.297524    77A      0.300950    78A      0.302040  
      79A      0.306429    80A      0.312921    81A      0.313670  
      82A      0.324934    83A      0.328330    84A      0.330787  
      85A      0.336063    86A      0.341182    87A      0.344783  
      88A      0.348259    89A      0.356297    90A      0.360690  
      91A      0.364237    92A      0.371779    93A      0.374820  
      94A      0.385303    95A      0.392509    96A      0.402989  
      97A      0.403735    98A      0.411500    99A      0.421208  
     100A      0.426319   101A      0.435380   102A      0.438643  
     103A      0.452007   104A      0.454271   105A      0.464140  
     106A      0.466565   107A      0.470990   108A      0.475900  
     109A      0.489890   110A      0.497160   111A      0.512776  
     112A      0.517864   113A      0.521372   114A      0.527704  
     115A      0.529986   116A      0.532629   117A      0.543538  
     118A      0.547040   119A      0.549975   120A      0.565823  
     121A      0.571202   122A      0.576962   123A      0.591170  
     124A      0.594812   125A      0.604777   126A      0.613095  
     127A      0.636273   128A      0.638885   129A      0.647820  
     130A      0.663082   131A      0.678477   132A      0.688571  
     133A      0.693515   134A      0.705077   135A      0.714781  
     136A      0.715991   137A      0.723962   138A      0.735876  
     139A      0.740936   140A      0.744032   141A      0.752878  
     142A      0.763469   143A      0.772949   144A      0.779814  
     145A      0.791097   146A      0.794201   147A      0.799669  
     148A      0.809531   149A      0.819131   150A      0.820164  
     151A      0.827904   152A      0.832517   153A      0.846627  
     154A      0.853254   155A      0.859370   156A      0.863594  
     157A      0.872416   158A      0.886462   159A      0.888463  
     160A      0.895110   161A      0.903714   162A      0.915802  
     163A      0.926272   164A      0.930278   165A      0.935307  
     166A      0.946892   167A      0.948584   168A      0.962466  
     169A      0.972299   170A      0.979374   171A      0.996998  
     172A      1.004547   173A      1.012232   174A      1.016242  
     175A      1.021712   176A      1.049088   177A      1.064286  
     178A      1.072299   179A      1.080589   180A      1.094831  
     181A      1.107311   182A      1.109100   183A      1.126487  
     184A      1.135073   185A      1.143418   186A      1.147131  
     187A      1.151790   188A      1.167667   189A      1.185819  
     190A      1.197976   191A      1.214514   192A      1.220829  
     193A      1.246151   194A      1.264267   195A      1.273581  
     196A      1.284718   197A      1.295674   198A      1.296861  
     199A      1.311228   200A      1.314821   201A      1.332554  
     202A      1.345491   203A      1.351059   204A      1.361670  
     205A      1.371703   206A      1.381983   207A      1.397840  
     208A      1.401798   209A      1.413489   210A      1.426686  
     211A      1.427661   212A      1.439313   213A      1.442337  
     214A      1.448938   215A      1.458263   216A      1.465882  
     217A      1.473401   218A      1.486503   219A      1.498929  
     220A      1.502435   221A      1.504203   222A      1.532442  
     223A      1.534984   224A      1.540732   225A      1.557636  
     226A      1.561981   227A      1.572730   228A      1.587263  
     229A      1.595661   230A      1.608961   231A      1.615565  
     232A      1.622531   233A      1.628095   234A      1.638040  
     235A      1.667417   236A      1.672326   237A      1.676488  
     238A      1.685762   239A      1.699538   240A      1.708548  
     241A      1.720838   242A      1.751464   243A      1.768952  
     244A      1.779499   245A      1.787962   246A      1.803347  
     247A      1.813165   248A      1.825411   249A      1.827101  
     250A      1.844478   251A      1.845735   252A      1.870974  
     253A      1.903367   254A      1.913741   255A      1.918428  
     256A      1.929521   257A      1.942685   258A      1.951881  
     259A      1.974956   260A      1.988005   261A      2.042394  
     262A      2.068350   263A      2.116364   264A      2.148780  
     265A      2.231604   266A      2.246969   267A      2.251233  
     268A      2.290828   269A      2.333038   270A      2.389142  
     271A      2.451822   272A      2.478110   273A      2.480895  
     274A      2.606860   275A      2.638187   276A      2.652294  
     277A      2.727070   278A      2.750164   279A      2.761553  
     280A      2.787397   281A      2.805408   282A      2.817976  
     283A      2.827515   284A      2.845217   285A      2.851713  
     286A      2.872225   287A      2.886586   288A      2.892732  
     289A      2.898359   290A      2.911935   291A      2.924061  
     292A      2.934055   293A      2.963413   294A      2.964248  
     295A      2.987561   296A      2.992086   297A      3.025923  
     298A      3.029334   299A      3.038676   300A      3.051526  
     301A      3.061966   302A      3.072294   303A      3.096626  
     304A      3.113054   305A      3.115464   306A      3.120057  
     307A      3.126457   308A      3.134987   309A      3.149567  
     310A      3.152571   311A      3.168879   312A      3.188024  
     313A      3.203633   314A      3.224007   315A      3.235180  
     316A      3.243679   317A      3.255642   318A      3.263103  
     319A      3.277612   320A      3.291489   321A      3.305847  
     322A      3.311558   323A      3.318718   324A      3.337922  
     325A      3.341368   326A      3.363731   327A      3.371581  
     328A      3.377727   329A      3.383689   330A      3.394492  
     331A      3.408925   332A      3.419092   333A      3.429016  
     334A      3.442622   335A      3.450929   336A      3.469389  
     337A      3.475417   338A      3.478052   339A      3.484670  
     340A      3.493373   341A      3.497533   342A      3.506411  
     343A      3.511385   344A      3.515415   345A      3.520830  
     346A      3.534744   347A      3.541253   348A      3.556592  
     349A      3.567067   350A      3.579602   351A      3.585544  
     352A      3.597273   353A      3.614763   354A      3.622574  
     355A      3.633993   356A      3.655348   357A      3.672706  
     358A      3.681120   359A      3.683336   360A      3.706416  
     361A      3.715423   362A      3.724297   363A      3.739099  
     364A      3.747868   365A      3.758065   366A      3.776528  
     367A      3.783536   368A      3.802512   369A      3.810186  
     370A      3.823606   371A      3.840794   372A      3.845983  
     373A      3.857075   374A      3.871214   375A      3.881196  
     376A      3.886329   377A      3.896941   378A      3.905243  
     379A      3.917272   380A      3.924912   381A      3.964498  
     382A      3.970051   383A      3.981696   384A      4.002718  
     385A      4.006744   386A      4.045386   387A      4.065421  
     388A      4.072406   389A      4.076640   390A      4.093763  
     391A      4.122028   392A      4.136282   393A      4.184064  
     394A      4.190165   395A      4.211728   396A      4.218828  
     397A      4.222225   398A      4.231103   399A      4.242463  
     400A      4.246491   401A      4.264593   402A      4.280975  
     403A      4.304503   404A      4.307738   405A      4.315616  
     406A      4.323512   407A      4.347398   408A      4.353797  
     409A      4.356626   410A      4.359611   411A      4.366637  
     412A      4.377494   413A      4.393140   414A      4.405480  
     415A      4.424534   416A      4.426061   417A      4.434236  
     418A      4.442013   419A      4.448842   420A      4.454447  
     421A      4.464920   422A      4.471514   423A      4.484065  
     424A      4.490009   425A      4.500275   426A      4.525429  
     427A      4.538099   428A      4.563648   429A      4.584241  
     430A      4.591291   431A      4.606407   432A      4.627712  
     433A      4.640893   434A      4.647917   435A      4.663556  
     436A      4.674254   437A      4.687606   438A      4.709806  
     439A      4.721333   440A      4.728222   441A      4.733612  
     442A      4.754200   443A      4.782322   444A      4.799607  
     445A      4.805019   446A      4.831976   447A      4.843516  
     448A      4.860862   449A      4.893996   450A      4.915477  
     451A      4.936611   452A      4.947512   453A      4.960975  
     454A      4.971158   455A      5.010156   456A      5.048924  
     457A      5.087939   458A      5.107879   459A      5.127065  
     460A      5.139382   461A      5.195692   462A      5.203943  
     463A      5.228308   464A      5.244977   465A      5.250107  
     466A      5.260315   467A      5.277566   468A      5.281850  
     469A      5.291691   470A      5.308335   471A      5.316050  
     472A      5.320081   473A      5.340190   474A      5.352890  
     475A      5.368654   476A      5.401313   477A      5.413321  
     478A      5.432439   479A      5.460170   480A      5.494911  
     481A      5.511903   482A      5.585624   483A      5.587659  
     484A      5.619856   485A      5.622492   486A      5.648250  
     487A      5.661100   488A      5.677512   489A      5.701275  
     490A      5.729547   491A      5.740712   492A      5.741218  
     493A      5.747986   494A      5.756447   495A      5.789426  
     496A      5.813346   497A      5.828017   498A      5.830917  
     499A      5.878457   500A      5.901792   501A      5.911391  
     502A      5.918324   503A      5.933394   504A      5.957784  
     505A      5.983239   506A      6.023709   507A      6.037083  
     508A      6.067938   509A      6.148374   510A      6.191522  
     511A      6.309206   512A      6.381673   513A      6.475766  
     514A      6.480987   515A      6.493278   516A      6.494698  
     517A      6.502543   518A      6.508476   519A      6.560153  
     520A      6.599365   521A      6.705895   522A      6.750549  
     523A      6.796642   524A      6.996667   525A      7.010482  
     526A      7.098799   527A      7.223468   528A      7.299760  
     529A      7.310402   530A      7.398040   531A      7.409516  
     532A      7.411004   533A      7.476609   534A      7.687151  
     535A      7.769909   536A      7.874420   537A      7.998079  
     538A      8.165854   539A     12.202361   540A     12.595329  
     541A     13.904224   542A     14.119936   543A     14.180264  
     544A     14.496675   545A     14.545056   546A     14.735351  
     547A     15.346310  

    Final Occupation by Irrep:
              A 
    DOCC [    36 ]

  @DF-RHF Final Energy:  -423.11916396883754

   => Energetics <=

    Nuclear Repulsion Energy =            441.6280084658807823
    One-Electron Energy =               -1451.3510499529907065
    Two-Electron Energy =                 586.6038775182722702
    Total Energy =                       -423.1191639688375972

Computation Completed


Properties will be evaluated at   0.000000,   0.000000,   0.000000 [a0]

Properties computed using the SCF density matrix

  Nuclear Dipole Moment: [e a0]
     X:     3.6346      Y:    -3.0538      Z:     1.0560

  Electronic Dipole Moment: [e a0]
     X:    -3.8215      Y:     3.3559      Z:    -0.7861

  Dipole Moment: [e a0]
     X:    -0.1869      Y:     0.3021      Z:     0.2700     Total:     0.4462

  Dipole Moment: [D]
     X:    -0.4751      Y:     0.7677      Z:     0.6862     Total:     1.1341


*** tstop() called on r282 at Sat Sep 11 00:49:07 2021
Module time:
	user time   =      83.39 seconds =       1.39 minutes
	system time =       1.82 seconds =       0.03 minutes
	total time  =         86 seconds =       1.43 minutes
Total time:
	user time   =      83.39 seconds =       1.39 minutes
	system time =       1.82 seconds =       0.03 minutes
	total time  =         86 seconds =       1.43 minutes

  //>>>>>>>>>>>>>>>>>>>>>>>>>>>>>>>>>>>//
  //            Monomer A HF           //
  //<<<<<<<<<<<<<<<<<<<<<<<<<<<<<<<<<<<//


*** tstart() called on r282
*** at Sat Sep 11 00:49:07 2021

   => Loading Basis Set <=

    Name: JUN-CC-PVTZ
    Role: ORBITAL
    Keyword: BASIS
    atoms 1-3, 12-15  entry C          line   217 file /home/r08543048/miniconda3/share/psi4/basis/jun-cc-pvtz.gbs 
    atoms 4-5         entry O          line   305 file /home/r08543048/miniconda3/share/psi4/basis/jun-cc-pvtz.gbs 
    atoms 6-11, 16-23 entry H          line    36 file /home/r08543048/miniconda3/share/psi4/basis/jun-cc-pvtz.gbs 


         ---------------------------------------------------------
                                   SCF
               by Justin Turney, Rob Parrish, Andy Simmonett
                          and Daniel G. A. Smith
                              RHF Reference
                        1 Threads,  20980 MiB Core
         ---------------------------------------------------------

  ==> Geometry <==

    Molecular point group: c1
    Full point group: C1

    Geometry (in Angstrom), charge = 0, multiplicity = 1:

       Center              X                  Y                   Z               Mass       
    ------------   -----------------  -----------------  -----------------  -----------------
         C           -3.711450899208    -1.027025447909    -0.082278415266    12.000000000000
         C           -2.992160899208     0.258873552091     0.283703584734    12.000000000000
         C           -1.519851899208     0.203247552091    -0.021156415266    12.000000000000
         O           -0.938428899208    -0.742773447909    -0.511473415266    15.994914619570
         O           -0.902202899208     1.353167552091     0.321384584734    15.994914619570
         H           -3.297249899208    -1.870681447909     0.465806584734     1.007825032230
         H           -4.771722899208    -0.948281447909     0.151120584734     1.007825032230
         H           -3.604433899208    -1.240594447909    -1.143658415266     1.007825032230
         H           -3.095544899208     0.492362552091     1.344718584734     1.007825032230
         H           -3.401506899208     1.117212552091    -0.251799415266     1.007825032230
         H            0.044534100792     1.257147552091     0.092878584734     1.007825032230
      Gh(C)           2.319595100792     1.773120552091    -0.177842415266    12.000000000000
      Gh(C)           2.183769100792     0.471725552091    -0.463920415266    12.000000000000
      Gh(C)           2.354997100792    -0.642267447909     0.516917584734    12.000000000000
      Gh(C)           3.492093100792    -1.577427447909     0.103258584734    12.000000000000
      Gh(H)           2.202890100792     2.532997552091    -0.938609415266     1.007825032230
      Gh(H)           2.561509100792     2.100458552091     0.826038584734     1.007825032230
      Gh(H)           1.942777100792     0.180248552091    -1.482452415266     1.007825032230
      Gh(H)           2.547123100792    -0.229454447909     1.509452584734     1.007825032230
      Gh(H)           1.422508100792    -1.209604447909     0.566262584734     1.007825032230
      Gh(H)           3.304180100792    -1.996639447909    -0.885369415266     1.007825032230
      Gh(H)           4.440244100792    -1.041498447909     0.067660584734     1.007825032230
      Gh(H)           3.591141100792    -2.404322447909     0.805397584734     1.007825032230

  Running in c1 symmetry.

  Rotational constants: A =      0.09149  B =      0.02049  C =      0.01759 [cm^-1]
  Rotational constants: A =   2742.70376  B =    614.21651  C =    527.48469 [MHz]
  Nuclear repulsion =  178.581418627386142

  Charge       = 0
  Multiplicity = 1
  Electrons    = 40
  Nalpha       = 20
  Nbeta        = 20

  ==> Algorithm <==

  SCF Algorithm Type is DF.
  DIIS enabled.
  MOM disabled.
  Fractional occupation disabled.
  Guess Type is SAD.
  Energy threshold   = 1.00e-08
  Density threshold  = 1.00e-08
  Integral threshold = 0.00e+00

  ==> Primary Basis <==

  Basis Set: JUN-CC-PVTZ
    Blend: JUN-CC-PVTZ
    Number of shells: 201
    Number of basis function: 547
    Number of Cartesian functions: 615
    Spherical Harmonics?: true
    Max angular momentum: 3

   => Loading Basis Set <=

    Name: (JUN-CC-PVTZ AUX)
    Role: JKFIT
    Keyword: DF_BASIS_SCF
    atoms 1-3, 12-15  entry C          line   152 file /home/r08543048/miniconda3/share/psi4/basis/jun-cc-pvtz-jkfit.gbs 
    atoms 4-5         entry O          line   272 file /home/r08543048/miniconda3/share/psi4/basis/jun-cc-pvtz-jkfit.gbs 
    atoms 6-11, 16-23 entry H          line    70 file /home/r08543048/miniconda3/share/psi4/basis/jun-cc-pvtz-jkfit.gbs 

  ==> Pre-Iterations <==

   -------------------------------------------------------
    Irrep   Nso     Nmo     Nalpha   Nbeta   Ndocc  Nsocc
   -------------------------------------------------------
     A        547     547       0       0       0       0
   -------------------------------------------------------
    Total     547     547      20      20      20       0
   -------------------------------------------------------

  ==> Integral Setup <==

  ==> DiskDFJK: Density-Fitted J/K Matrices <==

    J tasked:                  Yes
    K tasked:                  Yes
    wK tasked:                  No
    OpenMP threads:              1
    Integrals threads:           1
    Memory [MiB]:            15735
    Algorithm:                Core
    Integral Cache:           LOAD
    Schwarz Cutoff:          1E-12
    Fitting Condition:       1E-10

   => Auxiliary Basis Set <=

  Basis Set: (JUN-CC-PVTZ AUX)
    Blend: JUN-CC-PVTZ-JKFIT
    Number of shells: 401
    Number of basis function: 1275
    Number of Cartesian functions: 1534
    Spherical Harmonics?: true
    Max angular momentum: 4

  Minimum eigenvalue in the overlap matrix is 3.1156051197E-05.
  Using Symmetric Orthogonalization.

  SCF Guess: Superposition of Atomic Densities via on-the-fly atomic UHF.

  ==> Iterations <==

                           Total Energy        Delta E     RMS |[F,P]|

   @DF-RHF iter SAD:  -266.05904595350358   -2.66059e+02   0.00000e+00 
   @DF-RHF iter   1:  -266.75217552576163   -6.93130e-01   1.18713e-03 DIIS
   @DF-RHF iter   2:  -266.89951470364332   -1.47339e-01   6.97747e-04 DIIS
   @DF-RHF iter   3:  -266.94889923523760   -4.93845e-02   1.23210e-04 DIIS
   @DF-RHF iter   4:  -266.95166959464166   -2.77036e-03   5.87048e-05 DIIS
   @DF-RHF iter   5:  -266.95228022258550   -6.10628e-04   1.17784e-05 DIIS
   @DF-RHF iter   6:  -266.95232486403029   -4.46414e-05   5.78804e-06 DIIS
   @DF-RHF iter   7:  -266.95233398529643   -9.12127e-06   2.08434e-06 DIIS
   @DF-RHF iter   8:  -266.95233588856593   -1.90327e-06   7.39063e-07 DIIS
   @DF-RHF iter   9:  -266.95233614438655   -2.55821e-07   1.72150e-07 DIIS
   @DF-RHF iter  10:  -266.95233615692371   -1.25372e-08   5.18997e-08 DIIS
   @DF-RHF iter  11:  -266.95233615768376   -7.60053e-10   1.29052e-08 DIIS
   @DF-RHF iter  12:  -266.95233615773338   -4.96243e-11   2.96664e-09 DIIS
  Energy and wave function converged.


  ==> Post-Iterations <==

    Orbital Energies [Eh]
    ---------------------

    Doubly Occupied:                                                      

       1A    -20.616298     2A    -20.549611     3A    -11.386614  
       4A    -11.248390     5A    -11.221886     6A     -1.463842  
       7A     -1.359298     8A     -1.067995     9A     -0.916201  
      10A     -0.796478    11A     -0.704768    12A     -0.689469  
      13A     -0.662018    14A     -0.596265    15A     -0.594080  
      16A     -0.535165    17A     -0.526537    18A     -0.505485  
      19A     -0.482814    20A     -0.452783  

    Virtual:                                                              

      21A      0.029557    22A      0.045541    23A      0.048512  
      24A      0.055332    25A      0.061477    26A      0.068976  
      27A      0.075297    28A      0.078273    29A      0.090256  
      30A      0.095429    31A      0.097431    32A      0.104445  
      33A      0.107738    34A      0.111288    35A      0.114325  
      36A      0.126553    37A      0.128236    38A      0.133028  
      39A      0.143327    40A      0.146763    41A      0.150843  
      42A      0.160606    43A      0.166395    44A      0.174659  
      45A      0.177837    46A      0.183306    47A      0.188073  
      48A      0.199350    49A      0.212167    50A      0.221500  
      51A      0.231931    52A      0.234525    53A      0.241597  
      54A      0.251857    55A      0.254591    56A      0.261446  
      57A      0.273675    58A      0.282673    59A      0.288806  
      60A      0.295675    61A      0.297965    62A      0.302149  
      63A      0.306224    64A      0.312127    65A      0.317706  
      66A      0.323380    67A      0.329481    68A      0.330326  
      69A      0.339200    70A      0.346717    71A      0.348971  
      72A      0.360468    73A      0.360780    74A      0.368212  
      75A      0.372723    76A      0.381244    77A      0.384742  
      78A      0.389819    79A      0.394263    80A      0.400787  
      81A      0.408118    82A      0.412905    83A      0.421013  
      84A      0.426521    85A      0.431734    86A      0.437947  
      87A      0.450748    88A      0.458916    89A      0.462960  
      90A      0.475053    91A      0.478692    92A      0.490684  
      93A      0.498336    94A      0.503526    95A      0.508807  
      96A      0.518263    97A      0.531578    98A      0.534427  
      99A      0.544655   100A      0.545070   101A      0.547996  
     102A      0.553098   103A      0.560323   104A      0.571402  
     105A      0.573799   106A      0.587269   107A      0.589572  
     108A      0.607468   109A      0.612373   110A      0.622029  
     111A      0.625885   112A      0.630525   113A      0.635201  
     114A      0.649077   115A      0.657569   116A      0.670776  
     117A      0.682920   118A      0.691170   119A      0.697241  
     120A      0.705786   121A      0.714925   122A      0.717157  
     123A      0.719872   124A      0.730246   125A      0.737553  
     126A      0.739421   127A      0.755095   128A      0.771696  
     129A      0.774082   130A      0.775945   131A      0.796622  
     132A      0.797581   133A      0.813426   134A      0.819995  
     135A      0.828354   136A      0.844176   137A      0.847012  
     138A      0.862467   139A      0.879826   140A      0.890932  
     141A      0.899101   142A      0.910231   143A      0.917818  
     144A      0.926666   145A      0.934287   146A      0.946702  
     147A      0.967924   148A      0.993396   149A      1.011731  
     150A      1.028445   151A      1.051759   152A      1.058418  
     153A      1.071184   154A      1.072524   155A      1.086718  
     156A      1.092899   157A      1.110831   158A      1.119953  
     159A      1.126038   160A      1.138089   161A      1.141421  
     162A      1.158236   163A      1.172608   164A      1.176794  
     165A      1.196754   166A      1.203807   167A      1.214479  
     168A      1.221034   169A      1.233560   170A      1.240657  
     171A      1.254703   172A      1.266606   173A      1.274787  
     174A      1.277481   175A      1.288054   176A      1.289916  
     177A      1.300830   178A      1.312993   179A      1.315046  
     180A      1.331658   181A      1.336514   182A      1.343408  
     183A      1.350830   184A      1.355521   185A      1.363371  
     186A      1.374301   187A      1.393064   188A      1.400468  
     189A      1.411071   190A      1.413968   191A      1.424371  
     192A      1.431626   193A      1.436625   194A      1.445325  
     195A      1.450624   196A      1.463586   197A      1.474686  
     198A      1.477242   199A      1.481341   200A      1.489259  
     201A      1.496974   202A      1.500386   203A      1.513457  
     204A      1.529514   205A      1.539890   206A      1.551877  
     207A      1.558743   208A      1.565182   209A      1.571528  
     210A      1.575254   211A      1.592481   212A      1.599077  
     213A      1.601950   214A      1.609842   215A      1.614907  
     216A      1.627150   217A      1.631620   218A      1.647443  
     219A      1.670869   220A      1.677944   221A      1.683470  
     222A      1.693668   223A      1.714069   224A      1.724994  
     225A      1.747044   226A      1.761630   227A      1.768763  
     228A      1.791790   229A      1.804733   230A      1.807253  
     231A      1.829018   232A      1.849488   233A      1.872532  
     234A      1.883450   235A      1.910771   236A      1.914601  
     237A      1.926105   238A      1.959799   239A      1.969189  
     240A      1.971739   241A      1.980781   242A      2.014645  
     243A      2.063301   244A      2.072655   245A      2.097557  
     246A      2.125019   247A      2.140287   248A      2.149136  
     249A      2.200951   250A      2.226183   251A      2.230767  
     252A      2.257920   253A      2.264359   254A      2.307726  
     255A      2.326422   256A      2.374727   257A      2.388678  
     258A      2.396011   259A      2.426892   260A      2.447360  
     261A      2.456047   262A      2.489272   263A      2.509977  
     264A      2.526899   265A      2.544190   266A      2.581428  
     267A      2.623971   268A      2.651562   269A      2.653447  
     270A      2.682908   271A      2.722168   272A      2.760806  
     273A      2.815939   274A      2.841199   275A      2.875019  
     276A      2.892623   277A      2.924787   278A      2.930640  
     279A      2.965850   280A      3.016761   281A      3.025246  
     282A      3.035050   283A      3.079163   284A      3.113575  
     285A      3.123390   286A      3.130904   287A      3.180855  
     288A      3.225104   289A      3.242603   290A      3.303460  
     291A      3.312752   292A      3.336820   293A      3.370552  
     294A      3.373459   295A      3.391835   296A      3.447666  
     297A      3.458314   298A      3.463382   299A      3.474557  
     300A      3.486604   301A      3.489797   302A      3.503787  
     303A      3.509135   304A      3.518679   305A      3.522616  
     306A      3.547320   307A      3.558354   308A      3.575758  
     309A      3.590095   310A      3.596333   311A      3.604577  
     312A      3.610384   313A      3.626897   314A      3.630573  
     315A      3.644249   316A      3.646419   317A      3.668756  
     318A      3.677693   319A      3.686559   320A      3.709585  
     321A      3.714167   322A      3.720149   323A      3.742542  
     324A      3.764271   325A      3.774924   326A      3.784968  
     327A      3.794516   328A      3.797864   329A      3.818775  
     330A      3.825929   331A      3.832189   332A      3.843148  
     333A      3.853642   334A      3.865377   335A      3.879611  
     336A      3.888578   337A      3.897732   338A      3.905568  
     339A      3.910087   340A      3.943756   341A      3.954422  
     342A      3.967070   343A      3.978147   344A      3.997907  
     345A      4.022648   346A      4.035886   347A      4.056073  
     348A      4.070983   349A      4.081488   350A      4.097114  
     351A      4.099986   352A      4.103071   353A      4.131731  
     354A      4.161691   355A      4.173235   356A      4.185710  
     357A      4.199863   358A      4.215538   359A      4.217934  
     360A      4.223748   361A      4.239752   362A      4.243930  
     363A      4.277683   364A      4.293327   365A      4.299371  
     366A      4.312502   367A      4.325800   368A      4.342444  
     369A      4.353210   370A      4.358662   371A      4.367157  
     372A      4.369388   373A      4.379826   374A      4.413107  
     375A      4.431401   376A      4.437072   377A      4.440718  
     378A      4.456270   379A      4.468631   380A      4.477671  
     381A      4.493798   382A      4.499325   383A      4.505577  
     384A      4.527130   385A      4.533048   386A      4.538436  
     387A      4.560966   388A      4.577197   389A      4.584235  
     390A      4.591715   391A      4.610737   392A      4.619560  
     393A      4.633152   394A      4.641011   395A      4.668339  
     396A      4.670410   397A      4.683449   398A      4.694349  
     399A      4.696698   400A      4.706273   401A      4.712853  
     402A      4.717578   403A      4.728481   404A      4.743092  
     405A      4.750423   406A      4.764541   407A      4.779249  
     408A      4.803762   409A      4.808157   410A      4.819506  
     411A      4.825984   412A      4.837876   413A      4.842699  
     414A      4.845824   415A      4.863357   416A      4.874085  
     417A      4.887571   418A      4.896374   419A      4.906008  
     420A      4.914529   421A      4.934537   422A      4.938542  
     423A      4.957092   424A      4.965376   425A      4.988095  
     426A      4.998319   427A      5.014057   428A      5.032221  
     429A      5.048313   430A      5.075459   431A      5.089678  
     432A      5.096919   433A      5.131695   434A      5.145104  
     435A      5.155918   436A      5.170062   437A      5.198972  
     438A      5.231814   439A      5.248630   440A      5.261438  
     441A      5.266336   442A      5.275955   443A      5.288271  
     444A      5.301972   445A      5.315676   446A      5.344057  
     447A      5.360438   448A      5.376996   449A      5.401526  
     450A      5.443356   451A      5.456445   452A      5.481407  
     453A      5.490990   454A      5.494073   455A      5.563607  
     456A      5.578899   457A      5.617118   458A      5.636624  
     459A      5.651984   460A      5.655714   461A      5.669944  
     462A      5.695634   463A      5.719483   464A      5.735775  
     465A      5.737306   466A      5.744387   467A      5.809077  
     468A      5.823435   469A      5.830930   470A      5.834884  
     471A      5.875269   472A      5.887436   473A      5.899742  
     474A      5.909027   475A      5.968882   476A      5.973758  
     477A      6.030797   478A      6.033515   479A      6.054105  
     480A      6.055679   481A      6.075422   482A      6.136870  
     483A      6.149651   484A      6.206062   485A      6.283586  
     486A      6.297734   487A      6.335439   488A      6.348717  
     489A      6.391568   490A      6.412096   491A      6.464528  
     492A      6.472230   493A      6.487052   494A      6.495180  
     495A      6.506071   496A      6.553373   497A      6.649167  
     498A      6.727703   499A      6.750781   500A      6.775142  
     501A      6.796100   502A      6.861122   503A      6.961195  
     504A      6.991091   505A      6.997395   506A      7.084935  
     507A      7.096684   508A      7.206888   509A      7.290523  
     510A      7.298850   511A      7.356586   512A      7.374544  
     513A      7.392434   514A      7.409739   515A      7.420223  
     516A      7.471874   517A      7.480696   518A      7.574401  
     519A      7.604827   520A      7.681458   521A      7.692430  
     522A      7.704446   523A      7.765101   524A      7.844284  
     525A      7.863315   526A      7.893817   527A      7.969903  
     528A      7.976565   529A      8.002349   530A      8.129496  
     531A      8.163652   532A      8.297096   533A      8.437755  
     534A      8.805489   535A      9.453412   536A      9.705527  
     537A      9.884035   538A     10.213114   539A     12.200806  
     540A     13.947234   541A     14.127467   542A     14.534847  
     543A     14.728309   544A     41.684255   545A     44.887448  
     546A     45.561340   547A     47.189286  

    Final Occupation by Irrep:
              A 
    DOCC [    20 ]

  @DF-RHF Final Energy:  -266.95233615773338

   => Energetics <=

    Nuclear Repulsion Energy =            178.5814186273861424
    One-Electron Energy =                -718.3155154645547782
    Two-Electron Energy =                 272.7817606794352514
    Total Energy =                       -266.9523361577333844

Computation Completed


Properties will be evaluated at   0.000000,   0.000000,   0.000000 [a0]

Properties computed using the SCF density matrix

  Nuclear Dipole Moment: [e a0]
     X:  -155.3199      Y:     0.5686      Z:     0.4157

  Electronic Dipole Moment: [e a0]
     X:   154.9265      Y:    -0.0003      Z:    -0.1186

  Dipole Moment: [e a0]
     X:    -0.3934      Y:     0.5683      Z:     0.2971     Total:     0.7523

  Dipole Moment: [D]
     X:    -1.0000      Y:     1.4445      Z:     0.7551     Total:     1.9123


*** tstop() called on r282 at Sat Sep 11 00:50:06 2021
Module time:
	user time   =      58.48 seconds =       0.97 minutes
	system time =       0.88 seconds =       0.01 minutes
	total time  =         59 seconds =       0.98 minutes
Total time:
	user time   =     141.87 seconds =       2.36 minutes
	system time =       2.70 seconds =       0.05 minutes
	total time  =        145 seconds =       2.42 minutes

  //>>>>>>>>>>>>>>>>>>>>>>>>>>>>>>>>>>>//
  //            Monomer B HF           //
  //<<<<<<<<<<<<<<<<<<<<<<<<<<<<<<<<<<<//


*** tstart() called on r282
*** at Sat Sep 11 00:50:06 2021

   => Loading Basis Set <=

    Name: JUN-CC-PVTZ
    Role: ORBITAL
    Keyword: BASIS
    atoms 1-3, 12-15  entry C          line   217 file /home/r08543048/miniconda3/share/psi4/basis/jun-cc-pvtz.gbs 
    atoms 4-5         entry O          line   305 file /home/r08543048/miniconda3/share/psi4/basis/jun-cc-pvtz.gbs 
    atoms 6-11, 16-23 entry H          line    36 file /home/r08543048/miniconda3/share/psi4/basis/jun-cc-pvtz.gbs 


         ---------------------------------------------------------
                                   SCF
               by Justin Turney, Rob Parrish, Andy Simmonett
                          and Daniel G. A. Smith
                              RHF Reference
                        1 Threads,  20980 MiB Core
         ---------------------------------------------------------

  ==> Geometry <==

    Molecular point group: c1
    Full point group: C1

    Geometry (in Angstrom), charge = 0, multiplicity = 1:

       Center              X                  Y                   Z               Mass       
    ------------   -----------------  -----------------  -----------------  -----------------
      Gh(C)          -3.711450899208    -1.027025447909    -0.082278415266    12.000000000000
      Gh(C)          -2.992160899208     0.258873552091     0.283703584734    12.000000000000
      Gh(C)          -1.519851899208     0.203247552091    -0.021156415266    12.000000000000
      Gh(O)          -0.938428899208    -0.742773447909    -0.511473415266    15.994914619570
      Gh(O)          -0.902202899208     1.353167552091     0.321384584734    15.994914619570
      Gh(H)          -3.297249899208    -1.870681447909     0.465806584734     1.007825032230
      Gh(H)          -4.771722899208    -0.948281447909     0.151120584734     1.007825032230
      Gh(H)          -3.604433899208    -1.240594447909    -1.143658415266     1.007825032230
      Gh(H)          -3.095544899208     0.492362552091     1.344718584734     1.007825032230
      Gh(H)          -3.401506899208     1.117212552091    -0.251799415266     1.007825032230
      Gh(H)           0.044534100792     1.257147552091     0.092878584734     1.007825032230
         C            2.319595100792     1.773120552091    -0.177842415266    12.000000000000
         C            2.183769100792     0.471725552091    -0.463920415266    12.000000000000
         C            2.354997100792    -0.642267447909     0.516917584734    12.000000000000
         C            3.492093100792    -1.577427447909     0.103258584734    12.000000000000
         H            2.202890100792     2.532997552091    -0.938609415266     1.007825032230
         H            2.561509100792     2.100458552091     0.826038584734     1.007825032230
         H            1.942777100792     0.180248552091    -1.482452415266     1.007825032230
         H            2.547123100792    -0.229454447909     1.509452584734     1.007825032230
         H            1.422508100792    -1.209604447909     0.566262584734     1.007825032230
         H            3.304180100792    -1.996639447909    -0.885369415266     1.007825032230
         H            4.440244100792    -1.041498447909     0.067660584734     1.007825032230
         H            3.591141100792    -2.404322447909     0.805397584734     1.007825032230

  Running in c1 symmetry.

  Rotational constants: A =      0.09149  B =      0.02049  C =      0.01759 [cm^-1]
  Rotational constants: A =   2742.70376  B =    614.21651  C =    527.48469 [MHz]
  Nuclear repulsion =  117.476021026801845

  Charge       = 0
  Multiplicity = 1
  Electrons    = 32
  Nalpha       = 16
  Nbeta        = 16

  ==> Algorithm <==

  SCF Algorithm Type is DF.
  DIIS enabled.
  MOM disabled.
  Fractional occupation disabled.
  Guess Type is SAD.
  Energy threshold   = 1.00e-08
  Density threshold  = 1.00e-08
  Integral threshold = 0.00e+00

  ==> Primary Basis <==

  Basis Set: JUN-CC-PVTZ
    Blend: JUN-CC-PVTZ
    Number of shells: 201
    Number of basis function: 547
    Number of Cartesian functions: 615
    Spherical Harmonics?: true
    Max angular momentum: 3

   => Loading Basis Set <=

    Name: (JUN-CC-PVTZ AUX)
    Role: JKFIT
    Keyword: DF_BASIS_SCF
    atoms 1-3, 12-15  entry C          line   152 file /home/r08543048/miniconda3/share/psi4/basis/jun-cc-pvtz-jkfit.gbs 
    atoms 4-5         entry O          line   272 file /home/r08543048/miniconda3/share/psi4/basis/jun-cc-pvtz-jkfit.gbs 
    atoms 6-11, 16-23 entry H          line    70 file /home/r08543048/miniconda3/share/psi4/basis/jun-cc-pvtz-jkfit.gbs 

  ==> Pre-Iterations <==

   -------------------------------------------------------
    Irrep   Nso     Nmo     Nalpha   Nbeta   Ndocc  Nsocc
   -------------------------------------------------------
     A        547     547       0       0       0       0
   -------------------------------------------------------
    Total     547     547      16      16      16       0
   -------------------------------------------------------

  ==> Integral Setup <==

  ==> DiskDFJK: Density-Fitted J/K Matrices <==

    J tasked:                  Yes
    K tasked:                  Yes
    wK tasked:                  No
    OpenMP threads:              1
    Integrals threads:           1
    Memory [MiB]:            15735
    Algorithm:                Core
    Integral Cache:           LOAD
    Schwarz Cutoff:          1E-12
    Fitting Condition:       1E-10

   => Auxiliary Basis Set <=

  Basis Set: (JUN-CC-PVTZ AUX)
    Blend: JUN-CC-PVTZ-JKFIT
    Number of shells: 401
    Number of basis function: 1275
    Number of Cartesian functions: 1534
    Spherical Harmonics?: true
    Max angular momentum: 4

  Minimum eigenvalue in the overlap matrix is 3.1156051197E-05.
  Using Symmetric Orthogonalization.

  SCF Guess: Superposition of Atomic Densities via on-the-fly atomic UHF.

  ==> Iterations <==

                           Total Energy        Delta E     RMS |[F,P]|

   @DF-RHF iter SAD:  -155.38252700271994   -1.55383e+02   0.00000e+00 
   @DF-RHF iter   1:  -155.99480019690679   -6.12273e-01   9.54852e-04 DIIS
   @DF-RHF iter   2:  -156.13437216030391   -1.39572e-01   4.22968e-04 DIIS
   @DF-RHF iter   3:  -156.16228106998273   -2.79089e-02   8.17836e-05 DIIS
   @DF-RHF iter   4:  -156.16412251711313   -1.84145e-03   3.03742e-05 DIIS
   @DF-RHF iter   5:  -156.16429141962777   -1.68903e-04   5.65149e-06 DIIS
   @DF-RHF iter   6:  -156.16430026860542   -8.84898e-06   1.03433e-06 DIIS
   @DF-RHF iter   7:  -156.16430062157028   -3.52965e-07   2.75386e-07 DIIS
   @DF-RHF iter   8:  -156.16430064711443   -2.55442e-08   8.08879e-08 DIIS
   @DF-RHF iter   9:  -156.16430064956307   -2.44864e-09   3.39688e-08 DIIS
   @DF-RHF iter  10:  -156.16430065004616   -4.83084e-10   1.09560e-08 DIIS
   @DF-RHF iter  11:  -156.16430065009968   -5.35181e-11   2.84101e-09 DIIS
  Energy and wave function converged.


  ==> Post-Iterations <==

    Orbital Energies [Eh]
    ---------------------

    Doubly Occupied:                                                      

       1A    -11.231577     2A    -11.224809     3A    -11.217872  
       4A    -11.214621     5A     -1.081087     6A     -0.987526  
       7A     -0.856471     8A     -0.755464     9A     -0.643571  
      10A     -0.606670    11A     -0.585218    12A     -0.535180  
      13A     -0.518216    14A     -0.487517    15A     -0.476818  
      16A     -0.356331  

    Virtual:                                                              

      17A      0.032816    18A      0.049246    19A      0.049988  
      20A      0.055931    21A      0.061607    22A      0.063548  
      23A      0.074265    24A      0.083551    25A      0.091332  
      26A      0.092622    27A      0.093547    28A      0.105751  
      29A      0.106438    30A      0.108449    31A      0.121513  
      32A      0.125001    33A      0.128601    34A      0.137214  
      35A      0.141133    36A      0.143279    37A      0.157163  
      38A      0.165349    39A      0.167732    40A      0.172753  
      41A      0.181830    42A      0.188741    43A      0.196127  
      44A      0.203635    45A      0.206186    46A      0.213170  
      47A      0.216458    48A      0.225016    49A      0.231153  
      50A      0.236472    51A      0.254692    52A      0.259742  
      53A      0.264282    54A      0.279618    55A      0.286743  
      56A      0.292723    57A      0.298073    58A      0.302649  
      59A      0.304958    60A      0.312505    61A      0.319103  
      62A      0.324320    63A      0.329652    64A      0.340197  
      65A      0.343668    66A      0.346369    67A      0.354936  
      68A      0.361489    69A      0.364272    70A      0.369470  
      71A      0.377781    72A      0.381605    73A      0.389589  
      74A      0.397825    75A      0.400500    76A      0.403985  
      77A      0.410042    78A      0.412906    79A      0.428273  
      80A      0.432664    81A      0.437097    82A      0.450906  
      83A      0.455680    84A      0.459189    85A      0.459874  
      86A      0.468801    87A      0.474464    88A      0.490391  
      89A      0.493427    90A      0.502877    91A      0.506459  
      92A      0.512564    93A      0.519709    94A      0.524033  
      95A      0.528656    96A      0.530621    97A      0.533865  
      98A      0.539929    99A      0.551930   100A      0.557243  
     101A      0.565201   102A      0.568198   103A      0.578049  
     104A      0.587928   105A      0.599096   106A      0.605438  
     107A      0.631378   108A      0.642231   109A      0.650631  
     110A      0.657985   111A      0.670803   112A      0.673777  
     113A      0.685222   114A      0.691828   115A      0.697995  
     116A      0.712939   117A      0.725077   118A      0.741326  
     119A      0.751394   120A      0.762204   121A      0.768741  
     122A      0.784558   123A      0.789711   124A      0.801274  
     125A      0.802899   126A      0.814129   127A      0.817888  
     128A      0.831363   129A      0.832047   130A      0.836572  
     131A      0.846364   132A      0.859151   133A      0.863282  
     134A      0.880494   135A      0.895325   136A      0.902414  
     137A      0.906182   138A      0.923013   139A      0.941625  
     140A      0.947870   141A      0.954730   142A      0.958852  
     143A      0.979572   144A      0.983405   145A      0.995056  
     146A      1.013230   147A      1.028318   148A      1.032969  
     149A      1.036463   150A      1.048506   151A      1.050355  
     152A      1.060665   153A      1.073500   154A      1.078636  
     155A      1.084507   156A      1.096089   157A      1.106601  
     158A      1.110141   159A      1.115724   160A      1.131597  
     161A      1.138567   162A      1.161310   163A      1.166863  
     164A      1.178715   165A      1.188288   166A      1.195129  
     167A      1.217893   168A      1.225281   169A      1.232862  
     170A      1.239262   171A      1.250829   172A      1.261207  
     173A      1.271467   174A      1.274115   175A      1.278201  
     176A      1.283641   177A      1.294168   178A      1.308518  
     179A      1.319696   180A      1.330982   181A      1.334920  
     182A      1.344448   183A      1.353451   184A      1.356907  
     185A      1.383584   186A      1.396076   187A      1.400179  
     188A      1.404912   189A      1.416801   190A      1.418810  
     191A      1.454392   192A      1.460860   193A      1.464790  
     194A      1.486544   195A      1.501211   196A      1.511137  
     197A      1.511977   198A      1.518765   199A      1.537545  
     200A      1.548992   201A      1.556194   202A      1.572243  
     203A      1.583884   204A      1.589631   205A      1.595947  
     206A      1.598907   207A      1.620765   208A      1.629704  
     209A      1.633446   210A      1.643450   211A      1.657211  
     212A      1.665181   213A      1.670912   214A      1.678182  
     215A      1.704800   216A      1.707979   217A      1.727429  
     218A      1.741434   219A      1.759605   220A      1.769640  
     221A      1.775381   222A      1.778928   223A      1.803285  
     224A      1.824292   225A      1.832256   226A      1.851352  
     227A      1.859949   228A      1.866642   229A      1.891685  
     230A      1.906328   231A      1.926235   232A      1.939435  
     233A      1.945935   234A      1.959648   235A      1.968544  
     236A      1.986250   237A      1.996973   238A      2.041990  
     239A      2.051271   240A      2.092561   241A      2.107559  
     242A      2.143390   243A      2.149536   244A      2.171505  
     245A      2.195929   246A      2.229800   247A      2.265249  
     248A      2.335287   249A      2.372471   250A      2.412547  
     251A      2.450501   252A      2.540770   253A      2.545941  
     254A      2.581488   255A      2.626214   256A      2.638655  
     257A      2.694799   258A      2.742900   259A      2.749831  
     260A      2.760886   261A      2.779123   262A      2.789770  
     263A      2.812291   264A      2.814618   265A      2.848617  
     266A      2.856549   267A      2.864636   268A      2.870930  
     269A      2.892617   270A      2.913947   271A      2.917053  
     272A      2.960428   273A      2.963656   274A      2.985172  
     275A      2.998414   276A      3.008419   277A      3.029891  
     278A      3.052175   279A      3.056281   280A      3.075919  
     281A      3.095266   282A      3.103626   283A      3.116123  
     284A      3.124168   285A      3.131553   286A      3.155888  
     287A      3.162915   288A      3.185051   289A      3.203333  
     290A      3.227026   291A      3.249933   292A      3.262844  
     293A      3.280467   294A      3.300824   295A      3.318307  
     296A      3.333922   297A      3.349478   298A      3.360926  
     299A      3.382453   300A      3.402621   301A      3.412890  
     302A      3.426179   303A      3.437587   304A      3.448906  
     305A      3.458701   306A      3.482004   307A      3.500908  
     308A      3.513630   309A      3.519094   310A      3.529735  
     311A      3.543998   312A      3.557355   313A      3.564117  
     314A      3.568094   315A      3.579809   316A      3.595031  
     317A      3.605857   318A      3.609625   319A      3.622661  
     320A      3.640857   321A      3.653526   322A      3.685177  
     323A      3.696488   324A      3.700092   325A      3.707921  
     326A      3.732481   327A      3.739585   328A      3.746746  
     329A      3.773652   330A      3.777668   331A      3.784461  
     332A      3.807039   333A      3.818790   334A      3.821703  
     335A      3.845950   336A      3.852961   337A      3.857027  
     338A      3.863110   339A      3.875385   340A      3.888970  
     341A      3.891249   342A      3.909729   343A      3.916892  
     344A      3.932389   345A      3.962792   346A      3.990022  
     347A      3.991675   348A      4.002658   349A      4.014105  
     350A      4.032963   351A      4.062918   352A      4.082476  
     353A      4.098448   354A      4.116154   355A      4.125805  
     356A      4.128910   357A      4.158182   358A      4.180583  
     359A      4.190059   360A      4.203695   361A      4.226295  
     362A      4.237410   363A      4.256578   364A      4.276600  
     365A      4.280261   366A      4.295710   367A      4.303782  
     368A      4.317411   369A      4.330534   370A      4.351417  
     371A      4.356673   372A      4.375546   373A      4.382146  
     374A      4.394952   375A      4.397994   376A      4.408855  
     377A      4.423004   378A      4.430174   379A      4.448623  
     380A      4.450994   381A      4.461658   382A      4.467268  
     383A      4.478032   384A      4.487632   385A      4.498472  
     386A      4.509561   387A      4.521692   388A      4.537935  
     389A      4.547864   390A      4.586469   391A      4.590251  
     392A      4.621787   393A      4.634935   394A      4.646933  
     395A      4.664891   396A      4.676001   397A      4.688088  
     398A      4.692002   399A      4.707465   400A      4.733311  
     401A      4.746132   402A      4.756385   403A      4.763101  
     404A      4.773048   405A      4.779939   406A      4.799515  
     407A      4.801465   408A      4.811158   409A      4.814265  
     410A      4.823820   411A      4.839212   412A      4.851963  
     413A      4.857279   414A      4.860956   415A      4.888252  
     416A      4.905031   417A      4.914003   418A      4.937102  
     419A      4.942106   420A      4.959281   421A      4.964859  
     422A      4.972339   423A      4.986684   424A      4.991994  
     425A      5.011496   426A      5.020305   427A      5.028017  
     428A      5.042363   429A      5.060674   430A      5.070043  
     431A      5.091126   432A      5.104960   433A      5.136798  
     434A      5.149397   435A      5.178733   436A      5.208279  
     437A      5.234334   438A      5.246940   439A      5.249940  
     440A      5.276402   441A      5.281329   442A      5.297047  
     443A      5.308702   444A      5.315205   445A      5.334258  
     446A      5.375336   447A      5.400734   448A      5.404541  
     449A      5.419268   450A      5.434699   451A      5.479596  
     452A      5.522242   453A      5.544884   454A      5.573539  
     455A      5.588795   456A      5.620712   457A      5.629598  
     458A      5.676521   459A      5.694337   460A      5.737400  
     461A      5.746640   462A      5.752490   463A      5.757410  
     464A      5.768353   465A      5.789572   466A      5.827676  
     467A      5.829201   468A      5.900404   469A      5.917859  
     470A      5.931268   471A      5.960235   472A      6.001488  
     473A      6.031359   474A      6.099940   475A      6.171649  
     476A      6.195095   477A      6.205475   478A      6.251034  
     479A      6.308733   480A      6.377257   481A      6.393915  
     482A      6.437209   483A      6.439008   484A      6.460164  
     485A      6.469512   486A      6.484508   487A      6.494838  
     488A      6.509007   489A      6.525805   490A      6.564481  
     491A      6.607510   492A      6.643850   493A      6.712794  
     494A      6.825739   495A      6.831809   496A      6.897109  
     497A      7.043233   498A      7.157312   499A      7.205885  
     500A      7.297904   501A      7.451634   502A      7.503393  
     503A      7.534476   504A      7.603553   505A      7.695184  
     506A      7.696690   507A      7.804218   508A      7.849002  
     509A      7.864787   510A      7.946340   511A      7.986569  
     512A      8.062589   513A      8.182451   514A      8.255265  
     515A      8.542209   516A      8.637258   517A      8.851693  
     518A      9.171329   519A      9.468094   520A      9.680819  
     521A      9.736318   522A      9.809042   523A      9.883991  
     524A      9.918410   525A      9.940748   526A      9.957173  
     527A      9.982681   528A     10.127255   529A     10.362724  
     530A     10.464220   531A     11.103508   532A     11.419990  
     533A     11.578294   534A     11.647876   535A     12.038800  
     536A     12.596178   537A     13.098574   538A     13.751061  
     539A     13.972806   540A     14.117087   541A     14.497585  
     542A     15.356157   543A     43.064197   544A     45.085322  
     545A     45.786790   546A     61.336045   547A     61.931045  

    Final Occupation by Irrep:
              A 
    DOCC [    16 ]

  @DF-RHF Final Energy:  -156.16430065009968

   => Energetics <=

    Nuclear Repulsion Energy =            117.4760210268018454
    One-Electron Energy =                -441.7227443692435713
    Two-Electron Energy =                 168.0824226923420497
    Total Energy =                       -156.1643006500996762

Computation Completed


Properties will be evaluated at   0.000000,   0.000000,   0.000000 [a0]

Properties computed using the SCF density matrix

  Nuclear Dipole Moment: [e a0]
     X:   158.9545      Y:    -3.6224      Z:     0.6404

  Electronic Dipole Moment: [e a0]
     X:  -158.9450      Y:     3.4489      Z:    -0.6051

  Dipole Moment: [e a0]
     X:     0.0095      Y:    -0.1735      Z:     0.0353     Total:     0.1773

  Dipole Moment: [D]
     X:     0.0242      Y:    -0.4411      Z:     0.0897     Total:     0.4508


*** tstop() called on r282 at Sat Sep 11 00:50:59 2021
Module time:
	user time   =      52.14 seconds =       0.87 minutes
	system time =       0.84 seconds =       0.01 minutes
	total time  =         53 seconds =       0.88 minutes
Total time:
	user time   =     194.01 seconds =       3.23 minutes
	system time =       3.54 seconds =       0.06 minutes
	total time  =        198 seconds =       3.30 minutes
  Constructing Basis Sets for SAPT...

   => Loading Basis Set <=

    Name: (JUN-CC-PVTZ AUX)
    Role: RIFIT
    Keyword: DF_BASIS_SAPT
    atoms 1-3, 12-15  entry C          line   132 file /home/r08543048/miniconda3/share/psi4/basis/jun-cc-pvtz-ri.gbs 
    atoms 4-5         entry O          line   244 file /home/r08543048/miniconda3/share/psi4/basis/jun-cc-pvtz-ri.gbs 
    atoms 6-11, 16-23 entry H          line    30 file /home/r08543048/miniconda3/share/psi4/basis/jun-cc-pvtz-ri.gbs 


  //>>>>>>>>>>>>>>>>>>>>>>>>>>>>>>>>>>>//
  //               SAPT0               //
  //<<<<<<<<<<<<<<<<<<<<<<<<<<<<<<<<<<<//


*** tstart() called on r282
*** at Sat Sep 11 00:50:59 2021

        SAPT0  
    Ed Hohenstein
     6 June 2009

      Orbital Information
  --------------------------
    NSO        =       547
    NMO        =       547
    NRI        =      1293
    NOCC A     =        20
    NOCC B     =        16
    FOCC A     =         0
    FOCC B     =         0
    NVIR A     =       527
    NVIR B     =       531

    Elst10,r            =    -0.012319635449 [Eh]
    Exch10              =     0.015016472969 [Eh]
    Exch10 (S^2)        =     0.014887315127 [Eh]

    Iter     Energy [mEh]          dE [mEh]         Residual      Time [s]
       1      -0.96583567       0.965835674       4.564632451             1
       2      -1.16414706       0.198311390       1.830781200             3
       3      -1.17979987       0.015652808       0.623840664             4
       4      -1.17491318      -0.004886696       0.269815166             5
       5      -1.17329131      -0.001621863       0.085526037             7
       6      -1.17376196       0.000470650       0.039675411             8
       7      -1.17402347       0.000261505       0.010353935            10
       8      -1.17396033      -0.000063142       0.003519907            11
       9      -1.17394175      -0.000018575       0.000815853            12
      10      -1.17394696       0.000005207       0.000227191            14
      11      -1.17394724       0.000000278       0.000056245            15
      12      -1.17394695      -0.000000289       0.000012963            16
      13      -1.17394695      -0.000000000       0.000003370            18
      14      -1.17394696       0.000000012       0.000001051            19
      15      -1.17394696       0.000000000       0.000000287            20

    CHF Iterations converged


    Iter     Energy [mEh]          dE [mEh]         Residual      Time [s]
       1      -6.18898554       6.188985536      14.390212787             2
       2      -7.73934918       1.550363646       6.333373983             3
       3      -8.01703461       0.277685426       1.695982331             4
       4      -7.99303128      -0.024003331       0.545192196             5
       5      -7.97533525      -0.017696031       0.145467965             7
       6      -7.97627599       0.000940744       0.059073909             8
       7      -7.97775286       0.001476867       0.017631030             9
       8      -7.97742021      -0.000332648       0.004593676            10
       9      -7.97738100      -0.000039210       0.001220808            14
      10      -7.97739487       0.000013866       0.000363615            15
      11      -7.97739859       0.000003720       0.000084753            16
      12      -7.97739714      -0.000001446       0.000018894            17
      13      -7.97739716       0.000000017       0.000005006            19
      14      -7.97739722       0.000000064       0.000001310            20
      15      -7.97739721      -0.000000007       0.000000424            21

    CHF Iterations converged

    Ind20,r (A<-B)      =    -0.001173946959 [Eh]
    Ind20,r (B<-A)      =    -0.007977397212 [Eh]
    Ind20,r             =    -0.009151344171 [Eh]
    Exch-Ind20,r (A<-B) =     0.000943864547 [Eh]
    Exch-Ind20,r (B<-A) =     0.005188375510 [Eh]
    Exch-Ind20,r        =     0.006132240056 [Eh]
    Disp20              =    -0.009096294116 [Eh]
    Disp20 (SS)         =    -0.004548147058 [Eh]
    Disp20 (OS)         =    -0.004548147058 [Eh]
    Exch-Disp20         =     0.001376181983 [Eh]
    Exch-Disp20 (SS)    =     0.000894864109 [Eh]
    Exch-Disp20 (OS)    =     0.000481317873 [Eh]

    SAPT Results 
  --------------------------------------------------------------------------------------------------------
    Electrostatics                -12.31963545 [mEh]      -7.73068796 [kcal/mol]     -32.34519841 [kJ/mol]
      Elst10,r                    -12.31963545 [mEh]      -7.73068796 [kcal/mol]     -32.34519841 [kJ/mol]

    Exchange                       15.01647297 [mEh]       9.42297905 [kcal/mol]      39.42574435 [kJ/mol]
      Exch10                       15.01647297 [mEh]       9.42297905 [kcal/mol]      39.42574435 [kJ/mol]
      Exch10(S^2)                  14.88731513 [mEh]       9.34193128 [kcal/mol]      39.08664048 [kJ/mol]

    Induction                      -5.22399852 [mEh]      -3.27810857 [kcal/mol]     -13.71560624 [kJ/mol]
      Ind20,r                      -9.15134417 [mEh]      -5.74255517 [kcal/mol]     -24.02685081 [kJ/mol]
      Exch-Ind20,r                  6.13224006 [mEh]       3.84803873 [kcal/mol]      16.10019405 [kJ/mol]
      delta HF,r (2)               -2.20489441 [mEh]      -1.38359213 [kcal/mol]      -5.78894948 [kJ/mol]

    Dispersion                     -7.72011213 [mEh]      -4.84444350 [kcal/mol]     -20.26915161 [kJ/mol]
      Disp20                       -9.09629412 [mEh]      -5.70801073 [kcal/mol]     -23.88231691 [kJ/mol]
      Exch-Disp20                   1.37618198 [mEh]       0.86356723 [kcal/mol]       3.61316530 [kJ/mol]
      Disp20 (SS)                  -4.54814706 [mEh]      -2.85400537 [kcal/mol]     -11.94115846 [kJ/mol]
      Disp20 (OS)                  -4.54814706 [mEh]      -2.85400537 [kcal/mol]     -11.94115846 [kJ/mol]
      Exch-Disp20 (SS)              0.89486411 [mEh]       0.56153571 [kcal/mol]       2.34946540 [kJ/mol]
      Exch-Disp20 (OS)              0.48131787 [mEh]       0.30203153 [kcal/mol]       1.26369990 [kJ/mol]

  Total HF                         -2.52716100 [mEh]      -1.58581747 [kcal/mol]      -6.63506030 [kJ/mol]
  Total SAPT0                     -10.24727314 [mEh]      -6.43026097 [kcal/mol]     -26.90421192 [kJ/mol]

  Special recipe for scaled SAPT0 (see Manual):
    Electrostatics sSAPT0         -12.31963545 [mEh]      -7.73068796 [kcal/mol]     -32.34519841 [kJ/mol]
    Exchange sSAPT0                15.01647297 [mEh]       9.42297905 [kcal/mol]      39.42574435 [kJ/mol]
    Induction sSAPT0               -5.06300546 [mEh]      -3.17708389 [kcal/mol]     -13.29291901 [kJ/mol]
    Dispersion sSAPT0              -7.68398247 [mEh]      -4.82177180 [kcal/mol]     -20.17429320 [kJ/mol]
  Total sSAPT0                    -10.05015041 [mEh]      -6.30656460 [kcal/mol]     -26.38666628 [kJ/mol]
  --------------------------------------------------------------------------------------------------------

*** tstop() called on r282 at Sat Sep 11 00:53:53 2021
Module time:
	user time   =     147.59 seconds =       2.46 minutes
	system time =      23.90 seconds =       0.40 minutes
	total time  =        174 seconds =       2.90 minutes
Total time:
	user time   =     341.76 seconds =       5.70 minutes
	system time =      27.44 seconds =       0.46 minutes
	total time  =        372 seconds =       6.20 minutes

    Psi4 stopped on: Saturday, 11 September 2021 12:53AM
    Psi4 wall time for execution: 0:06:11.69

*** Psi4 exiting successfully. Buy a developer a beer!
