
    -----------------------------------------------------------------------
          Psi4: An Open-Source Ab Initio Electronic Structure Package
                               Psi4 1.3.2 release

                         Git: Rev {HEAD} ecbda83 


    R. M. Parrish, L. A. Burns, D. G. A. Smith, A. C. Simmonett,
    A. E. DePrince III, E. G. Hohenstein, U. Bozkaya, A. Yu. Sokolov,
    R. Di Remigio, R. M. Richard, J. F. Gonthier, A. M. James,
    H. R. McAlexander, A. Kumar, M. Saitow, X. Wang, B. P. Pritchard,
    P. Verma, H. F. Schaefer III, K. Patkowski, R. A. King, E. F. Valeev,
    F. A. Evangelista, J. M. Turney, T. D. Crawford, and C. D. Sherrill,
    J. Chem. Theory Comput. 13(7) pp 3185--3197 (2017).
    (doi: 10.1021/acs.jctc.7b00174)


                         Additional Contributions by
    P. Kraus, H. Kruse, M. H. Lechner, M. C. Schieber, R. A. Shaw,
    A. Alenaizan, R. Galvelis, Z. L. Glick, S. Lehtola, and J. P. Misiewicz

    -----------------------------------------------------------------------


    Psi4 started on: Saturday, 11 September 2021 12:22AM

    Process ID: 57376
    Host:       r282
    PSIDATADIR: /home/r08543048/miniconda3/share/psi4
    Memory:     500.0 MiB
    Threads:    1
    
  ==> Input File <==

--------------------------------------------------------------------------
# Any line starting with the # character is a comment line
#! Sample  computation

memory 22 gb

molecule Dimer {
0 1
 C  -2.014734   -0.229345   -0.077438
 O  -1.287216   -1.062131   -0.577226
 O  -1.585704    0.991606    0.305302
 H  -0.631499    1.046411    0.094841
 C  -3.478465   -0.403596    0.196738
 H  -3.791427   -1.394168   -0.112661
 H  -3.669231   -0.261164    1.258644
 H  -4.041378    0.355575   -0.342955



  
  
  
  
  
  
    
    
 --
0 1
 C   1.539174    1.911935   -0.124800
 C   1.609877    0.614072   -0.448114
 C   1.942756   -0.488054    0.504069
 C   3.215098   -1.223154    0.080228
 H   1.313961    2.666443   -0.866250
 H   1.717346    2.243188    0.891064
 H   1.427217    0.318757   -1.477616
 H   2.059596   -0.079603    1.510017
 H   1.109448   -1.194339    0.525245
 H   3.103366   -1.637604   -0.921830
 H   4.068647   -0.545802    0.071931
 H   3.435073   -2.044645    0.760868
   
   
   




units angstrom

no_reorient
symmetry c1
}

set globals{
  basis jun-cc-pvtz
}

energy('sapt0')


--------------------------------------------------------------------------

  Memory set to  20.489 GiB by Python driver.

  //>>>>>>>>>>>>>>>>>>>>>>>>>>>>>>>>>>>//
  //              Dimer HF             //
  //<<<<<<<<<<<<<<<<<<<<<<<<<<<<<<<<<<<//


*** tstart() called on r282
*** at Sat Sep 11 00:22:45 2021

   => Loading Basis Set <=

    Name: JUN-CC-PVTZ
    Role: ORBITAL
    Keyword: BASIS
    atoms 1, 5, 9-12    entry C          line   217 file /home/r08543048/miniconda3/share/psi4/basis/jun-cc-pvtz.gbs 
    atoms 2-3           entry O          line   305 file /home/r08543048/miniconda3/share/psi4/basis/jun-cc-pvtz.gbs 
    atoms 4, 6-8, 13-20 entry H          line    36 file /home/r08543048/miniconda3/share/psi4/basis/jun-cc-pvtz.gbs 


         ---------------------------------------------------------
                                   SCF
               by Justin Turney, Rob Parrish, Andy Simmonett
                          and Daniel G. A. Smith
                              RHF Reference
                        1 Threads,  20980 MiB Core
         ---------------------------------------------------------

  ==> Geometry <==

    Molecular point group: c1
    Full point group: C1

    Geometry (in Angstrom), charge = 0, multiplicity = 1:

       Center              X                  Y                   Z               Mass       
    ------------   -----------------  -----------------  -----------------  -----------------
         C           -1.962713120972    -0.233851921337    -0.065558469460    12.000000000000
         O           -1.235195120972    -1.066637921337    -0.565346469460    15.994914619570
         O           -1.533683120972     0.987099078663     0.317181530540    15.994914619570
         H           -0.579478120972     1.041904078663     0.106720530540     1.007825032230
         C           -3.426444120972    -0.408102921337     0.208617530540    12.000000000000
         H           -3.739406120972    -1.398674921337    -0.100781469460     1.007825032230
         H           -3.617210120972    -0.265670921337     1.270523530540     1.007825032230
         H           -3.989357120972     0.351068078663    -0.331075469460     1.007825032230
         C            1.591194879028     1.907428078663    -0.112920469460    12.000000000000
         C            1.661897879028     0.609565078663    -0.436234469460    12.000000000000
         C            1.994776879028    -0.492560921337     0.515948530540    12.000000000000
         C            3.267118879028    -1.227660921337     0.092107530540    12.000000000000
         H            1.365981879028     2.661936078663    -0.854370469460     1.007825032230
         H            1.769366879028     2.238681078663     0.902943530540     1.007825032230
         H            1.479237879028     0.314250078663    -1.465736469460     1.007825032230
         H            2.111616879028    -0.084109921337     1.521896530540     1.007825032230
         H            1.161468879028    -1.198845921337     0.537124530540     1.007825032230
         H            3.155386879028    -1.642110921337    -0.909950469460     1.007825032230
         H            4.120667879028    -0.550308921337     0.083810530540     1.007825032230
         H            3.487093879028    -2.049151921337     0.772747530540     1.007825032230

  Running in c1 symmetry.

  Rotational constants: A =      0.11064  B =      0.02776  C =      0.02359 [cm^-1]
  Rotational constants: A =   3317.00030  B =    832.25826  C =    707.31429 [MHz]
  Nuclear repulsion =  363.752037795265039

  Charge       = 0
  Multiplicity = 1
  Electrons    = 64
  Nalpha       = 32
  Nbeta        = 32

  ==> Algorithm <==

  SCF Algorithm Type is DF.
  DIIS enabled.
  MOM disabled.
  Fractional occupation disabled.
  Guess Type is SAD.
  Energy threshold   = 1.00e-08
  Density threshold  = 1.00e-08
  Integral threshold = 0.00e+00

  ==> Primary Basis <==

  Basis Set: JUN-CC-PVTZ
    Blend: JUN-CC-PVTZ
    Number of shells: 176
    Number of basis function: 480
    Number of Cartesian functions: 540
    Spherical Harmonics?: true
    Max angular momentum: 3

   => Loading Basis Set <=

    Name: (JUN-CC-PVTZ AUX)
    Role: JKFIT
    Keyword: DF_BASIS_SCF
    atoms 1, 5, 9-12    entry C          line   152 file /home/r08543048/miniconda3/share/psi4/basis/jun-cc-pvtz-jkfit.gbs 
    atoms 2-3           entry O          line   272 file /home/r08543048/miniconda3/share/psi4/basis/jun-cc-pvtz-jkfit.gbs 
    atoms 4, 6-8, 13-20 entry H          line    70 file /home/r08543048/miniconda3/share/psi4/basis/jun-cc-pvtz-jkfit.gbs 

  ==> Pre-Iterations <==

   -------------------------------------------------------
    Irrep   Nso     Nmo     Nalpha   Nbeta   Ndocc  Nsocc
   -------------------------------------------------------
     A        480     480       0       0       0       0
   -------------------------------------------------------
    Total     480     480      32      32      32       0
   -------------------------------------------------------

  ==> Integral Setup <==

  ==> DiskDFJK: Density-Fitted J/K Matrices <==

    J tasked:                  Yes
    K tasked:                  Yes
    wK tasked:                  No
    OpenMP threads:              1
    Integrals threads:           1
    Memory [MiB]:            15735
    Algorithm:                Core
    Integral Cache:           SAVE
    Schwarz Cutoff:          1E-12
    Fitting Condition:       1E-10

   => Auxiliary Basis Set <=

  Basis Set: (JUN-CC-PVTZ AUX)
    Blend: JUN-CC-PVTZ-JKFIT
    Number of shells: 352
    Number of basis function: 1120
    Number of Cartesian functions: 1348
    Spherical Harmonics?: true
    Max angular momentum: 4

  Minimum eigenvalue in the overlap matrix is 3.3610234785E-05.
  Using Symmetric Orthogonalization.

  SCF Guess: Superposition of Atomic Densities via on-the-fly atomic UHF.

  ==> Iterations <==

                           Total Energy        Delta E     RMS |[F,P]|

   @DF-RHF iter SAD:  -382.53155532923671   -3.82532e+02   0.00000e+00 
   @DF-RHF iter   1:  -383.75722510185983   -1.22567e+00   1.62370e-03 DIIS
   @DF-RHF iter   2:  -384.00084240813703   -2.43617e-01   8.73294e-04 DIIS
   @DF-RHF iter   3:  -384.06585014538609   -6.50077e-02   1.74345e-04 DIIS
   @DF-RHF iter   4:  -384.07010827815640   -4.25813e-03   7.84586e-05 DIIS
   @DF-RHF iter   5:  -384.07092875455771   -8.20476e-04   1.55535e-05 DIIS
   @DF-RHF iter   6:  -384.07097784118957   -4.90866e-05   7.60066e-06 DIIS
   @DF-RHF iter   7:  -384.07098885353918   -1.10123e-05   2.40233e-06 DIIS
   @DF-RHF iter   8:  -384.07099085583928   -2.00230e-06   9.01110e-07 DIIS
   @DF-RHF iter   9:  -384.07099114433890   -2.88500e-07   2.49074e-07 DIIS
   @DF-RHF iter  10:  -384.07099116508749   -2.07486e-08   6.71495e-08 DIIS
   @DF-RHF iter  11:  -384.07099116627393   -1.18644e-09   2.30420e-08 DIIS
   @DF-RHF iter  12:  -384.07099116637295   -9.90212e-11   6.86260e-09 DIIS
  Energy and wave function converged.


  ==> Post-Iterations <==

    Orbital Energies [Eh]
    ---------------------

    Doubly Occupied:                                                      

       1A    -20.599676     2A    -20.543323     3A    -11.383413  
       4A    -11.241825     5A    -11.239757     6A    -11.227314  
       7A    -11.223260     8A    -11.214119     9A     -1.453664  
      10A     -1.351311    11A     -1.087583    12A     -1.023017  
      13A     -0.993553    14A     -0.859114    15A     -0.815079  
      16A     -0.761824    17A     -0.699104    18A     -0.672920  
      19A     -0.648343    20A     -0.643168    21A     -0.611294  
      22A     -0.589342    23A     -0.575845    24A     -0.567890  
      25A     -0.554543    26A     -0.539261    27A     -0.518666  
      28A     -0.488075    29A     -0.481192    30A     -0.474219  
      31A     -0.448392    32A     -0.369902  

    Virtual:                                                              

      33A      0.046433    34A      0.052086    35A      0.055411  
      36A      0.060320    37A      0.074891    38A      0.080735  
      39A      0.081695    40A      0.087396    41A      0.096721  
      42A      0.100249    43A      0.105112    44A      0.110227  
      45A      0.125856    46A      0.129698    47A      0.138735  
      48A      0.146348    49A      0.148597    50A      0.155057  
      51A      0.162266    52A      0.169711    53A      0.179078  
      54A      0.190349    55A      0.194700    56A      0.199176  
      57A      0.204159    58A      0.204596    59A      0.213578  
      60A      0.235688    61A      0.240946    62A      0.249587  
      63A      0.264086    64A      0.274114    65A      0.281518  
      66A      0.284697    67A      0.289528    68A      0.293657  
      69A      0.295912    70A      0.302688    71A      0.304999  
      72A      0.317045    73A      0.322597    74A      0.323048  
      75A      0.326791    76A      0.335864    77A      0.340833  
      78A      0.345613    79A      0.353831    80A      0.358719  
      81A      0.361640    82A      0.366079    83A      0.376309  
      84A      0.387944    85A      0.389503    86A      0.399147  
      87A      0.413544    88A      0.423247    89A      0.425922  
      90A      0.430876    91A      0.439783    92A      0.454957  
      93A      0.456458    94A      0.460400    95A      0.468433  
      96A      0.489861    97A      0.493134    98A      0.503676  
      99A      0.512098   100A      0.516151   101A      0.524831  
     102A      0.529135   103A      0.537274   104A      0.545500  
     105A      0.552260   106A      0.552706   107A      0.578540  
     108A      0.584869   109A      0.596093   110A      0.603831  
     111A      0.620073   112A      0.631472   113A      0.645194  
     114A      0.653555   115A      0.665736   116A      0.671575  
     117A      0.685096   118A      0.686896   119A      0.695199  
     120A      0.703385   121A      0.714176   122A      0.726706  
     123A      0.734358   124A      0.745685   125A      0.759850  
     126A      0.763349   127A      0.781294   128A      0.791367  
     129A      0.796289   130A      0.804860   131A      0.811748  
     132A      0.819595   133A      0.825830   134A      0.834881  
     135A      0.841342   136A      0.845972   137A      0.857361  
     138A      0.860621   139A      0.866176   140A      0.879620  
     141A      0.885235   142A      0.896965   143A      0.910132  
     144A      0.917731   145A      0.926515   146A      0.936574  
     147A      0.943361   148A      0.960991   149A      0.964005  
     150A      0.985097   151A      0.997848   152A      1.000383  
     153A      1.014011   154A      1.021413   155A      1.037641  
     156A      1.052150   157A      1.081524   158A      1.083622  
     159A      1.087194   160A      1.096709   161A      1.121190  
     162A      1.129405   163A      1.142972   164A      1.146655  
     165A      1.156545   166A      1.165456   167A      1.193456  
     168A      1.203738   169A      1.217600   170A      1.225660  
     171A      1.259665   172A      1.264337   173A      1.266844  
     174A      1.285607   175A      1.296793   176A      1.314149  
     177A      1.318904   178A      1.334112   179A      1.346308  
     180A      1.349288   181A      1.357239   182A      1.369124  
     183A      1.383909   184A      1.389591   185A      1.393662  
     186A      1.398033   187A      1.420835   188A      1.424730  
     189A      1.445549   190A      1.455093   191A      1.462182  
     192A      1.473643   193A      1.476804   194A      1.491770  
     195A      1.499859   196A      1.523876   197A      1.544047  
     198A      1.548150   199A      1.563499   200A      1.569361  
     201A      1.573564   202A      1.585489   203A      1.602178  
     204A      1.613833   205A      1.621258   206A      1.626272  
     207A      1.649698   208A      1.660754   209A      1.674071  
     210A      1.696255   211A      1.699240   212A      1.720856  
     213A      1.740008   214A      1.751345   215A      1.772027  
     216A      1.785902   217A      1.800922   218A      1.813321  
     219A      1.825295   220A      1.839563   221A      1.855252  
     222A      1.864131   223A      1.903402   224A      1.928141  
     225A      1.934761   226A      1.951762   227A      1.962962  
     228A      1.979521   229A      2.039738   230A      2.098829  
     231A      2.128381   232A      2.201560   233A      2.237547  
     234A      2.243066   235A      2.267601   236A      2.310900  
     237A      2.361360   238A      2.429287   239A      2.439461  
     240A      2.468739   241A      2.574401   242A      2.615738  
     243A      2.641840   244A      2.718918   245A      2.740047  
     246A      2.751889   247A      2.781784   248A      2.784155  
     249A      2.802921   250A      2.839562   251A      2.844165  
     252A      2.851878   253A      2.865396   254A      2.886349  
     255A      2.897774   256A      2.909195   257A      2.928208  
     258A      2.955228   259A      2.964702   260A      2.978705  
     261A      2.988441   262A      2.993588   263A      3.040738  
     264A      3.042968   265A      3.067899   266A      3.082017  
     267A      3.092383   268A      3.100647   269A      3.117030  
     270A      3.124083   271A      3.138928   272A      3.153789  
     273A      3.161775   274A      3.174626   275A      3.201694  
     276A      3.206695   277A      3.220256   278A      3.241854  
     279A      3.248848   280A      3.255895   281A      3.274819  
     282A      3.289897   283A      3.298270   284A      3.306401  
     285A      3.338805   286A      3.351161   287A      3.360127  
     288A      3.364625   289A      3.385919   290A      3.391612  
     291A      3.411475   292A      3.417907   293A      3.423229  
     294A      3.438166   295A      3.440224   296A      3.449633  
     297A      3.456404   298A      3.477492   299A      3.487700  
     300A      3.501814   301A      3.504300   302A      3.511903  
     303A      3.534032   304A      3.540531   305A      3.544151  
     306A      3.563883   307A      3.571713   308A      3.582083  
     309A      3.603617   310A      3.619888   311A      3.627994  
     312A      3.650994   313A      3.659710   314A      3.682300  
     315A      3.697663   316A      3.709994   317A      3.716731  
     318A      3.725409   319A      3.737452   320A      3.751916  
     321A      3.762097   322A      3.774200   323A      3.778599  
     324A      3.781052   325A      3.797691   326A      3.821472  
     327A      3.835519   328A      3.843207   329A      3.848521  
     330A      3.860090   331A      3.885031   332A      3.894000  
     333A      3.897716   334A      3.922616   335A      3.967855  
     336A      3.979549   337A      4.000409   338A      4.018680  
     339A      4.028537   340A      4.062568   341A      4.081189  
     342A      4.093207   343A      4.114244   344A      4.142587  
     345A      4.160468   346A      4.184042   347A      4.190125  
     348A      4.201999   349A      4.205136   350A      4.226385  
     351A      4.250421   352A      4.272829   353A      4.295543  
     354A      4.303106   355A      4.305802   356A      4.320149  
     357A      4.330334   358A      4.333928   359A      4.353979  
     360A      4.367415   361A      4.377189   362A      4.383991  
     363A      4.389615   364A      4.408769   365A      4.416875  
     366A      4.421945   367A      4.433514   368A      4.448603  
     369A      4.452432   370A      4.464765   371A      4.474860  
     372A      4.493310   373A      4.507295   374A      4.533327  
     375A      4.535792   376A      4.583151   377A      4.595826  
     378A      4.603554   379A      4.627391   380A      4.641788  
     381A      4.650687   382A      4.665875   383A      4.680044  
     384A      4.704949   385A      4.729599   386A      4.762117  
     387A      4.771219   388A      4.786004   389A      4.796138  
     390A      4.810907   391A      4.815473   392A      4.849591  
     393A      4.858149   394A      4.891631   395A      4.934170  
     396A      4.948378   397A      4.965810   398A      5.032309  
     399A      5.059823   400A      5.097181   401A      5.104337  
     402A      5.134268   403A      5.156068   404A      5.191130  
     405A      5.209699   406A      5.228714   407A      5.247855  
     408A      5.250252   409A      5.282688   410A      5.306945  
     411A      5.308770   412A      5.323819   413A      5.364808  
     414A      5.391938   415A      5.403032   416A      5.422961  
     417A      5.431105   418A      5.445912   419A      5.509532  
     420A      5.516295   421A      5.566952   422A      5.575588  
     423A      5.586952   424A      5.619182   425A      5.648162  
     426A      5.651004   427A      5.676404   428A      5.685465  
     429A      5.691964   430A      5.728359   431A      5.739348  
     432A      5.748164   433A      5.756473   434A      5.789470  
     435A      5.827240   436A      5.893163   437A      5.896144  
     438A      5.909033   439A      5.915644   440A      5.932644  
     441A      5.959150   442A      6.021659   443A      6.065308  
     444A      6.111398   445A      6.187581   446A      6.291650  
     447A      6.379864   448A      6.420563   449A      6.442060  
     450A      6.479151   451A      6.494215   452A      6.505532  
     453A      6.508622   454A      6.596722   455A      6.704818  
     456A      6.722989   457A      6.789104   458A      6.984829  
     459A      7.005663   460A      7.090555   461A      7.209952  
     462A      7.278856   463A      7.283598   464A      7.351462  
     465A      7.395255   466A      7.405058   467A      7.472349  
     468A      7.673752   469A      7.744143   470A      7.851244  
     471A      7.964521   472A      8.152136   473A     12.158219  
     474A     12.582616   475A     13.816474   476A     14.146802  
     477A     14.420923   478A     14.495492   479A     14.708684  
     480A     15.340219  

    Final Occupation by Irrep:
              A 
    DOCC [    32 ]

  @DF-RHF Final Energy:  -384.07099116637295

   => Energetics <=

    Nuclear Repulsion Energy =            363.7520377952650392
    One-Electron Energy =               -1243.8460751939121565
    Two-Electron Energy =                 496.0230462322741118
    Total Energy =                       -384.0709911663729486

Computation Completed


Properties will be evaluated at   0.000000,   0.000000,   0.000000 [a0]

Properties computed using the SCF density matrix

  Nuclear Dipole Moment: [e a0]
     X:     6.2915      Y:    -0.5451      Z:     1.4367

  Electronic Dipole Moment: [e a0]
     X:    -6.5333      Y:     0.8663      Z:    -1.1390

  Dipole Moment: [e a0]
     X:    -0.2418      Y:     0.3212      Z:     0.2978     Total:     0.5003

  Dipole Moment: [D]
     X:    -0.6146      Y:     0.8164      Z:     0.7569     Total:     1.2717


*** tstop() called on r282 at Sat Sep 11 00:23:36 2021
Module time:
	user time   =      49.22 seconds =       0.82 minutes
	system time =       1.29 seconds =       0.02 minutes
	total time  =         51 seconds =       0.85 minutes
Total time:
	user time   =      49.22 seconds =       0.82 minutes
	system time =       1.29 seconds =       0.02 minutes
	total time  =         51 seconds =       0.85 minutes

  //>>>>>>>>>>>>>>>>>>>>>>>>>>>>>>>>>>>//
  //            Monomer A HF           //
  //<<<<<<<<<<<<<<<<<<<<<<<<<<<<<<<<<<<//


*** tstart() called on r282
*** at Sat Sep 11 00:23:36 2021

   => Loading Basis Set <=

    Name: JUN-CC-PVTZ
    Role: ORBITAL
    Keyword: BASIS
    atoms 1, 5, 9-12    entry C          line   217 file /home/r08543048/miniconda3/share/psi4/basis/jun-cc-pvtz.gbs 
    atoms 2-3           entry O          line   305 file /home/r08543048/miniconda3/share/psi4/basis/jun-cc-pvtz.gbs 
    atoms 4, 6-8, 13-20 entry H          line    36 file /home/r08543048/miniconda3/share/psi4/basis/jun-cc-pvtz.gbs 


         ---------------------------------------------------------
                                   SCF
               by Justin Turney, Rob Parrish, Andy Simmonett
                          and Daniel G. A. Smith
                              RHF Reference
                        1 Threads,  20980 MiB Core
         ---------------------------------------------------------

  ==> Geometry <==

    Molecular point group: c1
    Full point group: C1

    Geometry (in Angstrom), charge = 0, multiplicity = 1:

       Center              X                  Y                   Z               Mass       
    ------------   -----------------  -----------------  -----------------  -----------------
         C           -1.962713120972    -0.233851921337    -0.065558469460    12.000000000000
         O           -1.235195120972    -1.066637921337    -0.565346469460    15.994914619570
         O           -1.533683120972     0.987099078663     0.317181530540    15.994914619570
         H           -0.579478120972     1.041904078663     0.106720530540     1.007825032230
         C           -3.426444120972    -0.408102921337     0.208617530540    12.000000000000
         H           -3.739406120972    -1.398674921337    -0.100781469460     1.007825032230
         H           -3.617210120972    -0.265670921337     1.270523530540     1.007825032230
         H           -3.989357120972     0.351068078663    -0.331075469460     1.007825032230
      Gh(C)           1.591194879028     1.907428078663    -0.112920469460    12.000000000000
      Gh(C)           1.661897879028     0.609565078663    -0.436234469460    12.000000000000
      Gh(C)           1.994776879028    -0.492560921337     0.515948530540    12.000000000000
      Gh(C)           3.267118879028    -1.227660921337     0.092107530540    12.000000000000
      Gh(H)           1.365981879028     2.661936078663    -0.854370469460     1.007825032230
      Gh(H)           1.769366879028     2.238681078663     0.902943530540     1.007825032230
      Gh(H)           1.479237879028     0.314250078663    -1.465736469460     1.007825032230
      Gh(H)           2.111616879028    -0.084109921337     1.521896530540     1.007825032230
      Gh(H)           1.161468879028    -1.198845921337     0.537124530540     1.007825032230
      Gh(H)           3.155386879028    -1.642110921337    -0.909950469460     1.007825032230
      Gh(H)           4.120667879028    -0.550308921337     0.083810530540     1.007825032230
      Gh(H)           3.487093879028    -2.049151921337     0.772747530540     1.007825032230

  Running in c1 symmetry.

  Rotational constants: A =      0.11064  B =      0.02776  C =      0.02359 [cm^-1]
  Rotational constants: A =   3317.00030  B =    832.25826  C =    707.31429 [MHz]
  Nuclear repulsion =  121.091886451095235

  Charge       = 0
  Multiplicity = 1
  Electrons    = 32
  Nalpha       = 16
  Nbeta        = 16

  ==> Algorithm <==

  SCF Algorithm Type is DF.
  DIIS enabled.
  MOM disabled.
  Fractional occupation disabled.
  Guess Type is SAD.
  Energy threshold   = 1.00e-08
  Density threshold  = 1.00e-08
  Integral threshold = 0.00e+00

  ==> Primary Basis <==

  Basis Set: JUN-CC-PVTZ
    Blend: JUN-CC-PVTZ
    Number of shells: 176
    Number of basis function: 480
    Number of Cartesian functions: 540
    Spherical Harmonics?: true
    Max angular momentum: 3

   => Loading Basis Set <=

    Name: (JUN-CC-PVTZ AUX)
    Role: JKFIT
    Keyword: DF_BASIS_SCF
    atoms 1, 5, 9-12    entry C          line   152 file /home/r08543048/miniconda3/share/psi4/basis/jun-cc-pvtz-jkfit.gbs 
    atoms 2-3           entry O          line   272 file /home/r08543048/miniconda3/share/psi4/basis/jun-cc-pvtz-jkfit.gbs 
    atoms 4, 6-8, 13-20 entry H          line    70 file /home/r08543048/miniconda3/share/psi4/basis/jun-cc-pvtz-jkfit.gbs 

  ==> Pre-Iterations <==

   -------------------------------------------------------
    Irrep   Nso     Nmo     Nalpha   Nbeta   Ndocc  Nsocc
   -------------------------------------------------------
     A        480     480       0       0       0       0
   -------------------------------------------------------
    Total     480     480      16      16      16       0
   -------------------------------------------------------

  ==> Integral Setup <==

  ==> DiskDFJK: Density-Fitted J/K Matrices <==

    J tasked:                  Yes
    K tasked:                  Yes
    wK tasked:                  No
    OpenMP threads:              1
    Integrals threads:           1
    Memory [MiB]:            15735
    Algorithm:                Core
    Integral Cache:           LOAD
    Schwarz Cutoff:          1E-12
    Fitting Condition:       1E-10

   => Auxiliary Basis Set <=

  Basis Set: (JUN-CC-PVTZ AUX)
    Blend: JUN-CC-PVTZ-JKFIT
    Number of shells: 352
    Number of basis function: 1120
    Number of Cartesian functions: 1348
    Spherical Harmonics?: true
    Max angular momentum: 4

  Minimum eigenvalue in the overlap matrix is 3.3610234785E-05.
  Using Symmetric Orthogonalization.

  SCF Guess: Superposition of Atomic Densities via on-the-fly atomic UHF.

  ==> Iterations <==

                           Total Energy        Delta E     RMS |[F,P]|

   @DF-RHF iter SAD:  -227.00100429729562   -2.27001e+02   0.00000e+00 
   @DF-RHF iter   1:  -227.74561228991169   -7.44608e-01   1.24671e-03 DIIS
   @DF-RHF iter   2:  -227.85898763115989   -1.13375e-01   7.64931e-04 DIIS
   @DF-RHF iter   3:  -227.90128723929175   -4.22996e-02   1.24405e-04 DIIS
   @DF-RHF iter   4:  -227.90349873720803   -2.21150e-03   5.67620e-05 DIIS
   @DF-RHF iter   5:  -227.90398139743320   -4.82660e-04   1.39781e-05 DIIS
   @DF-RHF iter   6:  -227.90402317934289   -4.17819e-05   6.71479e-06 DIIS
   @DF-RHF iter   7:  -227.90403376010664   -1.05808e-05   2.24258e-06 DIIS
   @DF-RHF iter   8:  -227.90403556159274   -1.80149e-06   5.98158e-07 DIIS
   @DF-RHF iter   9:  -227.90403570670441   -1.45112e-07   1.24309e-07 DIIS
   @DF-RHF iter  10:  -227.90403571187736   -5.17295e-09   3.28605e-08 DIIS
   @DF-RHF iter  11:  -227.90403571210251   -2.25157e-10   9.25861e-09 DIIS
  Energy and wave function converged.


  ==> Post-Iterations <==

    Orbital Energies [Eh]
    ---------------------

    Doubly Occupied:                                                      

       1A    -20.618412     2A    -20.551258     3A    -11.391369  
       4A    -11.245931     5A     -1.465821     6A     -1.360693  
       7A     -1.029892     8A     -0.826573     9A     -0.706427  
      10A     -0.681368    11A     -0.652717    12A     -0.584174  
      13A     -0.575228    14A     -0.563549    15A     -0.483673  
      16A     -0.456082  

    Virtual:                                                              

      17A      0.029460    18A      0.043683    19A      0.047080  
      20A      0.055640    21A      0.069200    22A      0.075904  
      23A      0.079383    24A      0.082119    25A      0.091740  
      26A      0.096665    27A      0.100431    28A      0.111308  
      29A      0.113388    30A      0.127807    31A      0.131829  
      32A      0.137455    33A      0.145576    34A      0.148607  
      35A      0.151246    36A      0.160376    37A      0.164692  
      38A      0.174699    39A      0.181852    40A      0.182509  
      41A      0.190132    42A      0.198640    43A      0.205283  
      44A      0.228350    45A      0.242064    46A      0.247621  
      47A      0.253235    48A      0.259488    49A      0.276354  
      50A      0.281148    51A      0.285275    52A      0.289459  
      53A      0.291702    54A      0.298045    55A      0.310002  
      56A      0.312167    57A      0.319973    58A      0.326775  
      59A      0.333823    60A      0.341097    61A      0.343776  
      62A      0.347175    63A      0.360509    64A      0.362321  
      65A      0.374616    66A      0.378707    67A      0.383590  
      68A      0.388295    69A      0.401184    70A      0.404840  
      71A      0.409364    72A      0.411374    73A      0.428464  
      74A      0.434120    75A      0.449174    76A      0.453100  
      77A      0.466724    78A      0.475224    79A      0.480521  
      80A      0.492387    81A      0.509363    82A      0.513276  
      83A      0.514196    84A      0.516798    85A      0.528843  
      86A      0.534812    87A      0.543212    88A      0.559173  
      89A      0.564933    90A      0.571401    91A      0.580656  
      92A      0.593454    93A      0.603599    94A      0.612105  
      95A      0.613708    96A      0.620728    97A      0.639888  
      98A      0.641058    99A      0.651001   100A      0.663360  
     101A      0.668548   102A      0.674152   103A      0.679728  
     104A      0.691190   105A      0.695977   106A      0.702358  
     107A      0.708281   108A      0.714248   109A      0.735851  
     110A      0.742269   111A      0.762127   112A      0.773765  
     113A      0.780553   114A      0.801681   115A      0.812543  
     116A      0.822634   117A      0.834428   118A      0.838131  
     119A      0.844739   120A      0.850096   121A      0.858239  
     122A      0.876127   123A      0.899054   124A      0.912075  
     125A      0.925554   126A      0.949828   127A      0.982638  
     128A      0.989195   129A      1.014346   130A      1.044005  
     131A      1.054256   132A      1.064375   133A      1.075329  
     134A      1.086938   135A      1.094454   136A      1.112714  
     137A      1.133093   138A      1.137286   139A      1.148411  
     140A      1.155570   141A      1.174622   142A      1.179058  
     143A      1.183231   144A      1.202656   145A      1.214121  
     146A      1.228502   147A      1.245420   148A      1.254877  
     149A      1.259580   150A      1.267894   151A      1.275950  
     152A      1.279441   153A      1.287232   154A      1.292373  
     155A      1.297488   156A      1.311700   157A      1.318011  
     158A      1.331593   159A      1.338938   160A      1.343282  
     161A      1.357946   162A      1.368425   163A      1.377661  
     164A      1.387467   165A      1.394996   166A      1.406117  
     167A      1.412381   168A      1.418427   169A      1.437406  
     170A      1.446533   171A      1.452460   172A      1.454991  
     173A      1.472306   174A      1.482097   175A      1.493085  
     176A      1.497969   177A      1.530148   178A      1.532660  
     179A      1.546418   180A      1.548901   181A      1.554425  
     182A      1.559960   183A      1.563789   184A      1.576274  
     185A      1.592772   186A      1.598489   187A      1.607820  
     188A      1.614091   189A      1.623587   190A      1.632448  
     191A      1.652446   192A      1.666928   193A      1.688679  
     194A      1.707676   195A      1.719485   196A      1.742149  
     197A      1.748665   198A      1.768435   199A      1.771371  
     200A      1.800051   201A      1.830099   202A      1.841231  
     203A      1.871109   204A      1.884767   205A      1.925050  
     206A      1.937026   207A      1.966601   208A      1.976675  
     209A      1.986136   210A      2.010400   211A      2.056120  
     212A      2.086557   213A      2.103804   214A      2.134414  
     215A      2.144075   216A      2.198556   217A      2.200613  
     218A      2.221544   219A      2.246650   220A      2.259375  
     221A      2.282965   222A      2.313612   223A      2.352237  
     224A      2.381355   225A      2.389844   226A      2.422156  
     227A      2.436296   228A      2.452779   229A      2.464472  
     230A      2.485378   231A      2.515395   232A      2.522071  
     233A      2.578445   234A      2.606006   235A      2.635780  
     236A      2.642442   237A      2.652821   238A      2.718736  
     239A      2.752955   240A      2.772282   241A      2.847843  
     242A      2.879228   243A      2.924771   244A      2.959179  
     245A      2.990282   246A      3.049110   247A      3.094861  
     248A      3.095317   249A      3.167994   250A      3.200383  
     251A      3.237251   252A      3.277989   253A      3.350430  
     254A      3.364242   255A      3.412847   256A      3.421981  
     257A      3.432440   258A      3.450562   259A      3.476838  
     260A      3.482746   261A      3.505358   262A      3.508228  
     263A      3.540983   264A      3.552525   265A      3.577819  
     266A      3.588433   267A      3.599958   268A      3.611661  
     269A      3.619982   270A      3.629450   271A      3.639673  
     272A      3.645301   273A      3.664771   274A      3.665880  
     275A      3.690243   276A      3.699975   277A      3.718510  
     278A      3.734492   279A      3.750588   280A      3.755162  
     281A      3.768327   282A      3.772907   283A      3.781258  
     284A      3.786134   285A      3.818149   286A      3.821474  
     287A      3.829808   288A      3.836079   289A      3.844241  
     290A      3.855042   291A      3.880497   292A      3.896945  
     293A      3.904375   294A      3.946785   295A      3.955315  
     296A      3.974550   297A      3.998396   298A      4.023416  
     299A      4.034407   300A      4.057182   301A      4.077332  
     302A      4.091262   303A      4.097559   304A      4.098087  
     305A      4.119349   306A      4.150454   307A      4.162135  
     308A      4.176021   309A      4.185197   310A      4.198358  
     311A      4.211837   312A      4.227837   313A      4.250005  
     314A      4.280339   315A      4.288161   316A      4.300986  
     317A      4.319015   318A      4.323005   319A      4.339933  
     320A      4.355704   321A      4.361870   322A      4.379778  
     323A      4.400077   324A      4.401467   325A      4.442782  
     326A      4.445889   327A      4.453199   328A      4.471896  
     329A      4.489700   330A      4.503610   331A      4.507112  
     332A      4.526273   333A      4.531357   334A      4.554105  
     335A      4.573375   336A      4.578171   337A      4.582455  
     338A      4.607502   339A      4.614846   340A      4.634505  
     341A      4.650994   342A      4.657992   343A      4.678834  
     344A      4.685673   345A      4.696710   346A      4.707630  
     347A      4.730162   348A      4.735558   349A      4.750110  
     350A      4.768757   351A      4.779838   352A      4.794060  
     353A      4.796227   354A      4.802006   355A      4.813074  
     356A      4.819715   357A      4.824661   358A      4.837539  
     359A      4.843104   360A      4.862328   361A      4.874357  
     362A      4.887993   363A      4.895645   364A      4.906877  
     365A      4.929589   366A      4.945038   367A      4.960979  
     368A      4.988261   369A      4.992002   370A      5.006588  
     371A      5.030732   372A      5.051634   373A      5.077329  
     374A      5.087869   375A      5.131300   376A      5.137978  
     377A      5.150739   378A      5.159470   379A      5.165967  
     380A      5.200405   381A      5.233465   382A      5.257506  
     383A      5.265545   384A      5.296862   385A      5.329705  
     386A      5.370929   387A      5.382160   388A      5.413262  
     389A      5.439851   390A      5.452664   391A      5.478743  
     392A      5.488543   393A      5.510308   394A      5.551835  
     395A      5.562757   396A      5.577254   397A      5.629098  
     398A      5.644487   399A      5.653435   400A      5.663130  
     401A      5.680374   402A      5.690585   403A      5.718444  
     404A      5.734187   405A      5.745360   406A      5.826263  
     407A      5.833858   408A      5.879287   409A      5.887538  
     410A      5.901111   411A      5.906896   412A      5.968317  
     413A      6.030534   414A      6.052453   415A      6.052834  
     416A      6.073197   417A      6.100187   418A      6.148254  
     419A      6.203219   420A      6.276571   421A      6.285473  
     422A      6.333467   423A      6.346541   424A      6.390146  
     425A      6.406704   426A      6.414036   427A      6.437200  
     428A      6.470470   429A      6.490579   430A      6.501897  
     431A      6.647312   432A      6.713219   433A      6.735890  
     434A      6.771382   435A      6.790209   436A      6.860375  
     437A      6.958946   438A      6.980310   439A      6.991533  
     440A      7.076484   441A      7.094659   442A      7.194841  
     443A      7.267611   444A      7.274026   445A      7.332713  
     446A      7.359513   447A      7.378488   448A      7.400729  
     449A      7.407929   450A      7.466892   451A      7.479945  
     452A      7.573427   453A      7.604639   454A      7.667018  
     455A      7.691377   456A      7.703505   457A      7.739894  
     458A      7.839717   459A      7.843534   460A      7.892798  
     461A      7.946639   462A      7.970026   463A      7.997715  
     464A      8.121801   465A      8.154805   466A      8.292905  
     467A      8.435121   468A      8.803388   469A      9.450511  
     470A      9.701274   471A      9.881418   472A     10.210941  
     473A     12.155850   474A     13.854239   475A     14.407027  
     476A     14.702844   477A     41.658452   478A     44.856355  
     479A     45.555605   480A     47.179658  

    Final Occupation by Irrep:
              A 
    DOCC [    16 ]

  @DF-RHF Final Energy:  -227.90403571210251

   => Energetics <=

    Nuclear Repulsion Energy =            121.0918864510952346
    One-Electron Energy =                -551.6055057637273649
    Two-Electron Energy =                 202.6095836005296462
    Total Energy =                       -227.9040357121025124

Computation Completed


Properties will be evaluated at   0.000000,   0.000000,   0.000000 [a0]

Properties computed using the SCF density matrix

  Nuclear Dipole Moment: [e a0]
     X:  -125.4994      Y:    -8.9940      Z:    -0.3431

  Electronic Dipole Moment: [e a0]
     X:   125.0116      Y:     9.5580      Z:     0.6742

  Dipole Moment: [e a0]
     X:    -0.4878      Y:     0.5640      Z:     0.3310     Total:     0.8159

  Dipole Moment: [D]
     X:    -1.2399      Y:     1.4336      Z:     0.8414     Total:     2.0738


*** tstop() called on r282 at Sat Sep 11 00:24:06 2021
Module time:
	user time   =      29.03 seconds =       0.48 minutes
	system time =       0.60 seconds =       0.01 minutes
	total time  =         30 seconds =       0.50 minutes
Total time:
	user time   =      78.25 seconds =       1.30 minutes
	system time =       1.89 seconds =       0.03 minutes
	total time  =         81 seconds =       1.35 minutes

  //>>>>>>>>>>>>>>>>>>>>>>>>>>>>>>>>>>>//
  //            Monomer B HF           //
  //<<<<<<<<<<<<<<<<<<<<<<<<<<<<<<<<<<<//


*** tstart() called on r282
*** at Sat Sep 11 00:24:06 2021

   => Loading Basis Set <=

    Name: JUN-CC-PVTZ
    Role: ORBITAL
    Keyword: BASIS
    atoms 1, 5, 9-12    entry C          line   217 file /home/r08543048/miniconda3/share/psi4/basis/jun-cc-pvtz.gbs 
    atoms 2-3           entry O          line   305 file /home/r08543048/miniconda3/share/psi4/basis/jun-cc-pvtz.gbs 
    atoms 4, 6-8, 13-20 entry H          line    36 file /home/r08543048/miniconda3/share/psi4/basis/jun-cc-pvtz.gbs 


         ---------------------------------------------------------
                                   SCF
               by Justin Turney, Rob Parrish, Andy Simmonett
                          and Daniel G. A. Smith
                              RHF Reference
                        1 Threads,  20980 MiB Core
         ---------------------------------------------------------

  ==> Geometry <==

    Molecular point group: c1
    Full point group: C1

    Geometry (in Angstrom), charge = 0, multiplicity = 1:

       Center              X                  Y                   Z               Mass       
    ------------   -----------------  -----------------  -----------------  -----------------
      Gh(C)          -1.962713120972    -0.233851921337    -0.065558469460    12.000000000000
      Gh(O)          -1.235195120972    -1.066637921337    -0.565346469460    15.994914619570
      Gh(O)          -1.533683120972     0.987099078663     0.317181530540    15.994914619570
      Gh(H)          -0.579478120972     1.041904078663     0.106720530540     1.007825032230
      Gh(C)          -3.426444120972    -0.408102921337     0.208617530540    12.000000000000
      Gh(H)          -3.739406120972    -1.398674921337    -0.100781469460     1.007825032230
      Gh(H)          -3.617210120972    -0.265670921337     1.270523530540     1.007825032230
      Gh(H)          -3.989357120972     0.351068078663    -0.331075469460     1.007825032230
         C            1.591194879028     1.907428078663    -0.112920469460    12.000000000000
         C            1.661897879028     0.609565078663    -0.436234469460    12.000000000000
         C            1.994776879028    -0.492560921337     0.515948530540    12.000000000000
         C            3.267118879028    -1.227660921337     0.092107530540    12.000000000000
         H            1.365981879028     2.661936078663    -0.854370469460     1.007825032230
         H            1.769366879028     2.238681078663     0.902943530540     1.007825032230
         H            1.479237879028     0.314250078663    -1.465736469460     1.007825032230
         H            2.111616879028    -0.084109921337     1.521896530540     1.007825032230
         H            1.161468879028    -1.198845921337     0.537124530540     1.007825032230
         H            3.155386879028    -1.642110921337    -0.909950469460     1.007825032230
         H            4.120667879028    -0.550308921337     0.083810530540     1.007825032230
         H            3.487093879028    -2.049151921337     0.772747530540     1.007825032230

  Running in c1 symmetry.

  Rotational constants: A =      0.11064  B =      0.02776  C =      0.02359 [cm^-1]
  Rotational constants: A =   3317.00030  B =    832.25826  C =    707.31429 [MHz]
  Nuclear repulsion =  117.477834312765751

  Charge       = 0
  Multiplicity = 1
  Electrons    = 32
  Nalpha       = 16
  Nbeta        = 16

  ==> Algorithm <==

  SCF Algorithm Type is DF.
  DIIS enabled.
  MOM disabled.
  Fractional occupation disabled.
  Guess Type is SAD.
  Energy threshold   = 1.00e-08
  Density threshold  = 1.00e-08
  Integral threshold = 0.00e+00

  ==> Primary Basis <==

  Basis Set: JUN-CC-PVTZ
    Blend: JUN-CC-PVTZ
    Number of shells: 176
    Number of basis function: 480
    Number of Cartesian functions: 540
    Spherical Harmonics?: true
    Max angular momentum: 3

   => Loading Basis Set <=

    Name: (JUN-CC-PVTZ AUX)
    Role: JKFIT
    Keyword: DF_BASIS_SCF
    atoms 1, 5, 9-12    entry C          line   152 file /home/r08543048/miniconda3/share/psi4/basis/jun-cc-pvtz-jkfit.gbs 
    atoms 2-3           entry O          line   272 file /home/r08543048/miniconda3/share/psi4/basis/jun-cc-pvtz-jkfit.gbs 
    atoms 4, 6-8, 13-20 entry H          line    70 file /home/r08543048/miniconda3/share/psi4/basis/jun-cc-pvtz-jkfit.gbs 

  ==> Pre-Iterations <==

   -------------------------------------------------------
    Irrep   Nso     Nmo     Nalpha   Nbeta   Ndocc  Nsocc
   -------------------------------------------------------
     A        480     480       0       0       0       0
   -------------------------------------------------------
    Total     480     480      16      16      16       0
   -------------------------------------------------------

  ==> Integral Setup <==

  ==> DiskDFJK: Density-Fitted J/K Matrices <==

    J tasked:                  Yes
    K tasked:                  Yes
    wK tasked:                  No
    OpenMP threads:              1
    Integrals threads:           1
    Memory [MiB]:            15735
    Algorithm:                Core
    Integral Cache:           LOAD
    Schwarz Cutoff:          1E-12
    Fitting Condition:       1E-10

   => Auxiliary Basis Set <=

  Basis Set: (JUN-CC-PVTZ AUX)
    Blend: JUN-CC-PVTZ-JKFIT
    Number of shells: 352
    Number of basis function: 1120
    Number of Cartesian functions: 1348
    Spherical Harmonics?: true
    Max angular momentum: 4

  Minimum eigenvalue in the overlap matrix is 3.3610234785E-05.
  Using Symmetric Orthogonalization.

  SCF Guess: Superposition of Atomic Densities via on-the-fly atomic UHF.

  ==> Iterations <==

                           Total Energy        Delta E     RMS |[F,P]|

   @DF-RHF iter SAD:  -155.38264014488831   -1.55383e+02   0.00000e+00 
   @DF-RHF iter   1:  -155.99480151341382   -6.12161e-01   1.08812e-03 DIIS
   @DF-RHF iter   2:  -156.13436968557372   -1.39568e-01   4.81983e-04 DIIS
   @DF-RHF iter   3:  -156.16227561230193   -2.79059e-02   9.32039e-05 DIIS
   @DF-RHF iter   4:  -156.16411697120458   -1.84136e-03   3.46217e-05 DIIS
   @DF-RHF iter   5:  -156.16428594098929   -1.68970e-04   6.43959e-06 DIIS
   @DF-RHF iter   6:  -156.16429478958653   -8.84860e-06   1.17854e-06 DIIS
   @DF-RHF iter   7:  -156.16429514248250   -3.52896e-07   3.13704e-07 DIIS
   @DF-RHF iter   8:  -156.16429516801327   -2.55308e-08   9.21282e-08 DIIS
   @DF-RHF iter   9:  -156.16429517045913   -2.44586e-09   3.86934e-08 DIIS
   @DF-RHF iter  10:  -156.16429517093897   -4.79844e-10   1.24831e-08 DIIS
   @DF-RHF iter  11:  -156.16429517099400   -5.50244e-11   3.23782e-09 DIIS
  Energy and wave function converged.


  ==> Post-Iterations <==

    Orbital Energies [Eh]
    ---------------------

    Doubly Occupied:                                                      

       1A    -11.231573     2A    -11.224803     3A    -11.217870  
       4A    -11.214617     5A     -1.081097     6A     -0.987522  
       7A     -0.856475     8A     -0.755469     9A     -0.643584  
      10A     -0.606674    11A     -0.585254    12A     -0.535152  
      13A     -0.518185    14A     -0.487548    15A     -0.476848  
      16A     -0.356320  

    Virtual:                                                              

      17A      0.035340    18A      0.050631    19A      0.053384  
      20A      0.057058    21A      0.064306    22A      0.073866  
      23A      0.077843    24A      0.085605    25A      0.093818  
      26A      0.096383    27A      0.100766    28A      0.107251  
      29A      0.122153    30A      0.128123    31A      0.132701  
      32A      0.137809    33A      0.142475    34A      0.150161  
      35A      0.158118    36A      0.164561    37A      0.173863  
      38A      0.182351    39A      0.188833    40A      0.195240  
      41A      0.197363    42A      0.204378    43A      0.210924  
      44A      0.222719    45A      0.230364    46A      0.235135  
      47A      0.241674    48A      0.256228    49A      0.264392  
      50A      0.273458    51A      0.282145    52A      0.290586  
      53A      0.296042    54A      0.307773    55A      0.312438  
      56A      0.323919    57A      0.329199    58A      0.332008  
      59A      0.339558    60A      0.343681    61A      0.350354  
      62A      0.354896    63A      0.362695    64A      0.366693  
      65A      0.373184    66A      0.382093    67A      0.388057  
      68A      0.391888    69A      0.402893    70A      0.407305  
      71A      0.410892    72A      0.422371    73A      0.428811  
      74A      0.434808    75A      0.446995    76A      0.453457  
      77A      0.458106    78A      0.469538    79A      0.477738  
      80A      0.481119    81A      0.493436    82A      0.498895  
      83A      0.508411    84A      0.513812    85A      0.515475  
      86A      0.522827    87A      0.528211    88A      0.531071  
      89A      0.537691    90A      0.548639    91A      0.563390  
      92A      0.564699    93A      0.575373    94A      0.593883  
      95A      0.600921    96A      0.619508    97A      0.626949  
      98A      0.658329    99A      0.660349   100A      0.669650  
     101A      0.688983   102A      0.707545   103A      0.712814  
     104A      0.722441   105A      0.739586   106A      0.755737  
     107A      0.765033   108A      0.776484   109A      0.784475  
     110A      0.789183   111A      0.794702   112A      0.803767  
     113A      0.812631   114A      0.820297   115A      0.829875  
     116A      0.832403   117A      0.846936   118A      0.850332  
     119A      0.859135   120A      0.886639   121A      0.887917  
     122A      0.896267   123A      0.904660   124A      0.922681  
     125A      0.928563   126A      0.944752   127A      0.954019  
     128A      0.962229   129A      0.974335   130A      0.983423  
     131A      0.991293   132A      1.006405   133A      1.020808  
     134A      1.028135   135A      1.040120   136A      1.042385  
     137A      1.052300   138A      1.065575   139A      1.071667  
     140A      1.082420   141A      1.085606   142A      1.098048  
     143A      1.104952   144A      1.116139   145A      1.132136  
     146A      1.144204   147A      1.150456   148A      1.163884  
     149A      1.167380   150A      1.190179   151A      1.217210  
     152A      1.220423   153A      1.235069   154A      1.241695  
     155A      1.263801   156A      1.270411   157A      1.280107  
     158A      1.291164   159A      1.301457   160A      1.308979  
     161A      1.329807   162A      1.340431   163A      1.351237  
     164A      1.357755   165A      1.373261   166A      1.384439  
     167A      1.396353   168A      1.407805   169A      1.413616  
     170A      1.435038   171A      1.450293   172A      1.456205  
     173A      1.465375   174A      1.479413   175A      1.503860  
     176A      1.513875   177A      1.525447   178A      1.538756  
     179A      1.556014   180A      1.565754   181A      1.571535  
     182A      1.585425   183A      1.603250   184A      1.611202  
     185A      1.617062   186A      1.635552   187A      1.640277  
     188A      1.646954   189A      1.656917   190A      1.662400  
     191A      1.696501   192A      1.704040   193A      1.719065  
     194A      1.733989   195A      1.749892   196A      1.773010  
     197A      1.795430   198A      1.808915   199A      1.827051  
     200A      1.830277   201A      1.845420   202A      1.860634  
     203A      1.871952   204A      1.903593   205A      1.916338  
     206A      1.934303   207A      1.942511   208A      1.949929  
     209A      1.963738   210A      1.976232   211A      2.018681  
     212A      2.041416   213A      2.077373   214A      2.100629  
     215A      2.128545   216A      2.163840   217A      2.175282  
     218A      2.258312   219A      2.345518   220A      2.405442  
     221A      2.428226   222A      2.512809   223A      2.570259  
     224A      2.606314   225A      2.665603   226A      2.716178  
     227A      2.742874   228A      2.748769   229A      2.761427  
     230A      2.776134   231A      2.794010   232A      2.809788  
     233A      2.839895   234A      2.844595   235A      2.857229  
     236A      2.863967   237A      2.878999   238A      2.897814  
     239A      2.913078   240A      2.944226   241A      2.953171  
     242A      2.973276   243A      2.986502   244A      2.994663  
     245A      3.002207   246A      3.025683   247A      3.046596  
     248A      3.056998   249A      3.088761   250A      3.095227  
     251A      3.102125   252A      3.118462   253A      3.125573  
     254A      3.144601   255A      3.155541   256A      3.179061  
     257A      3.195877   258A      3.223834   259A      3.242014  
     260A      3.254182   261A      3.278857   262A      3.293535  
     263A      3.307394   264A      3.320739   265A      3.346479  
     266A      3.355740   267A      3.376247   268A      3.396761  
     269A      3.409667   270A      3.413595   271A      3.428701  
     272A      3.441352   273A      3.451378   274A      3.481125  
     275A      3.500231   276A      3.508674   277A      3.516444  
     278A      3.527572   279A      3.554112   280A      3.555687  
     281A      3.566703   282A      3.574791   283A      3.582276  
     284A      3.593890   285A      3.604234   286A      3.624078  
     287A      3.629410   288A      3.650365   289A      3.685482  
     290A      3.700291   291A      3.703521   292A      3.710526  
     293A      3.740885   294A      3.746628   295A      3.775685  
     296A      3.787696   297A      3.794331   298A      3.819734  
     299A      3.845698   300A      3.858039   301A      3.862757  
     302A      3.879538   303A      3.887419   304A      3.897543  
     305A      3.925506   306A      3.940753   307A      3.955061  
     308A      3.963402   309A      3.979040   310A      3.992399  
     311A      4.007355   312A      4.012168   313A      4.055334  
     314A      4.079614   315A      4.114143   316A      4.116175  
     317A      4.129150   318A      4.155732   319A      4.183147  
     320A      4.200101   321A      4.225436   322A      4.235823  
     323A      4.249487   324A      4.267254   325A      4.278282  
     326A      4.297956   327A      4.308248   328A      4.321936  
     329A      4.327902   330A      4.350753   331A      4.361658  
     332A      4.370326   333A      4.380760   334A      4.389254  
     335A      4.395707   336A      4.421075   337A      4.425000  
     338A      4.431279   339A      4.448743   340A      4.451681  
     341A      4.459395   342A      4.477593   343A      4.496483  
     344A      4.517697   345A      4.522142   346A      4.538465  
     347A      4.558908   348A      4.583827   349A      4.586771  
     350A      4.622055   351A      4.645068   352A      4.651115  
     353A      4.675603   354A      4.688729   355A      4.689417  
     356A      4.710443   357A      4.738669   358A      4.749910  
     359A      4.759449   360A      4.773808   361A      4.785495  
     362A      4.797436   363A      4.812227   364A      4.816989  
     365A      4.851577   366A      4.855763   367A      4.858566  
     368A      4.878085   369A      4.886173   370A      4.895901  
     371A      4.926649   372A      4.931485   373A      4.964057  
     374A      4.971669   375A      4.974430   376A      5.012278  
     377A      5.027253   378A      5.058956   379A      5.069494  
     380A      5.092400   381A      5.096775   382A      5.132488  
     383A      5.145979   384A      5.206466   385A      5.229698  
     386A      5.234280   387A      5.246149   388A      5.249983  
     389A      5.286166   390A      5.309581   391A      5.321590  
     392A      5.334658   393A      5.373538   394A      5.384182  
     395A      5.403460   396A      5.414566   397A      5.436010  
     398A      5.487778   399A      5.519289   400A      5.587097  
     401A      5.609363   402A      5.623132   403A      5.675751  
     404A      5.694775   405A      5.703287   406A      5.739581  
     407A      5.747964   408A      5.754632   409A      5.786933  
     410A      5.827643   411A      5.916007   412A      5.925563  
     413A      5.957867   414A      5.987859   415A      6.028094  
     416A      6.041077   417A      6.072463   418A      6.157184  
     419A      6.160187   420A      6.191753   421A      6.266973  
     422A      6.325541   423A      6.367570   424A      6.393058  
     425A      6.451764   426A      6.477705   427A      6.486724  
     428A      6.501312   429A      6.508079   430A      6.524054  
     431A      6.605082   432A      6.647010   433A      6.712175  
     434A      6.747245   435A      6.820452   436A      7.040953  
     437A      7.149317   438A      7.188588   439A      7.275796  
     440A      7.503738   441A      7.509125   442A      7.540513  
     443A      7.695137   444A      7.818476   445A      7.831833  
     446A      7.857289   447A      7.936283   448A      8.042035  
     449A      8.127759   450A      8.353720   451A      8.617758  
     452A      8.826819   453A      9.147213   454A      9.444949  
     455A      9.685558   456A      9.795861   457A      9.867359  
     458A      9.908184   459A      9.923286   460A      9.937484  
     461A      9.945979   462A     10.095969   463A     10.347472  
     464A     10.448235   465A     11.072744   466A     11.369955  
     467A     11.544445   468A     11.629114   469A     11.964398  
     470A     12.583329   471A     13.074452   472A     13.736668  
     473A     13.936836   474A     14.099834   475A     14.495080  
     476A     15.350641   477A     42.828517   478A     46.006290  
     479A     61.135552   480A     61.570819  

    Final Occupation by Irrep:
              A 
    DOCC [    16 ]

  @DF-RHF Final Energy:  -156.16429517099400

   => Energetics <=

    Nuclear Repulsion Energy =            117.4778343127657507
    One-Electron Energy =                -441.7262752570953808
    Two-Electron Energy =                 168.0841457733356208
    Total Energy =                       -156.1642951709939950

Computation Completed


Properties will be evaluated at   0.000000,   0.000000,   0.000000 [a0]

Properties computed using the SCF density matrix

  Nuclear Dipole Moment: [e a0]
     X:   131.7909      Y:     8.4489      Z:     1.7799

  Electronic Dipole Moment: [e a0]
     X:  -131.7546      Y:    -8.6199      Z:    -1.7493

  Dipole Moment: [e a0]
     X:     0.0363      Y:    -0.1710      Z:     0.0306     Total:     0.1775

  Dipole Moment: [D]
     X:     0.0924      Y:    -0.4346      Z:     0.0778     Total:     0.4510


*** tstop() called on r282 at Sat Sep 11 00:24:34 2021
Module time:
	user time   =      27.77 seconds =       0.46 minutes
	system time =       0.58 seconds =       0.01 minutes
	total time  =         28 seconds =       0.47 minutes
Total time:
	user time   =     106.02 seconds =       1.77 minutes
	system time =       2.47 seconds =       0.04 minutes
	total time  =        109 seconds =       1.82 minutes
  Constructing Basis Sets for SAPT...

   => Loading Basis Set <=

    Name: (JUN-CC-PVTZ AUX)
    Role: RIFIT
    Keyword: DF_BASIS_SAPT
    atoms 1, 5, 9-12    entry C          line   132 file /home/r08543048/miniconda3/share/psi4/basis/jun-cc-pvtz-ri.gbs 
    atoms 2-3           entry O          line   244 file /home/r08543048/miniconda3/share/psi4/basis/jun-cc-pvtz-ri.gbs 
    atoms 4, 6-8, 13-20 entry H          line    30 file /home/r08543048/miniconda3/share/psi4/basis/jun-cc-pvtz-ri.gbs 


  //>>>>>>>>>>>>>>>>>>>>>>>>>>>>>>>>>>>//
  //               SAPT0               //
  //<<<<<<<<<<<<<<<<<<<<<<<<<<<<<<<<<<<//


*** tstart() called on r282
*** at Sat Sep 11 00:24:34 2021

        SAPT0  
    Ed Hohenstein
     6 June 2009

      Orbital Information
  --------------------------
    NSO        =       480
    NMO        =       480
    NRI        =      1136
    NOCC A     =        16
    NOCC B     =        16
    FOCC A     =         0
    FOCC B     =         0
    NVIR A     =       464
    NVIR B     =       464

    Elst10,r            =    -0.012374295040 [Eh]
    Exch10              =     0.014984895748 [Eh]
    Exch10 (S^2)        =     0.014855919102 [Eh]

    Iter     Energy [mEh]          dE [mEh]         Residual      Time [s]
       1      -0.94787698       0.947876979       4.534746688             1
       2      -1.14200277       0.194125793       1.821695822             1
       3      -1.15746938       0.015466609       0.625131388             2
       4      -1.15267058      -0.004798801       0.272010059             3
       5      -1.15104628      -0.001624300       0.086324392             4
       6      -1.15151936       0.000473084       0.039982217             5
       7      -1.15177158       0.000252212       0.010462939             6
       8      -1.15171277      -0.000058808       0.003404939             7
       9      -1.15169413      -0.000018635       0.000768518             7
      10      -1.15169920       0.000005065       0.000201660             8
      11      -1.15169928       0.000000087       0.000046907             9
      12      -1.15169906      -0.000000223       0.000011708            10
      13      -1.15169906      -0.000000002       0.000003147            11
      14      -1.15169907       0.000000013       0.000000938            12

    CHF Iterations converged


    Iter     Energy [mEh]          dE [mEh]         Residual      Time [s]
       1      -6.25083689       6.250836892      14.497366449             1
       2      -7.81316599       1.562329094       6.400669127             2
       3      -8.09795858       0.284792593       1.712034913             2
       4      -8.07422844      -0.023730142       0.550928506             3
       5      -8.05612560      -0.018102839       0.147830403             4
       6      -8.05705058       0.000924986       0.060138897             5
       7      -8.05856867       0.001518089       0.017866613             6
       8      -8.05823315      -0.000335526       0.004650085             7
       9      -8.05819226      -0.000040886       0.001232219             8
      10      -8.05820619       0.000013925       0.000367077             8
      11      -8.05821003       0.000003846       0.000085588             9
      12      -8.05820856      -0.000001467       0.000019061            10
      13      -8.05820858       0.000000014       0.000005058            11
      14      -8.05820864       0.000000065       0.000001320            12
      15      -8.05820864      -0.000000007       0.000000428            13

    CHF Iterations converged

    Ind20,r (A<-B)      =    -0.001151699072 [Eh]
    Ind20,r (B<-A)      =    -0.008058208636 [Eh]
    Ind20,r             =    -0.009209907708 [Eh]
    Exch-Ind20,r (A<-B) =     0.000922625559 [Eh]
    Exch-Ind20,r (B<-A) =     0.005227259607 [Eh]
    Exch-Ind20,r        =     0.006149885166 [Eh]
    Disp20              =    -0.008972691287 [Eh]
    Disp20 (SS)         =    -0.004486345643 [Eh]
    Disp20 (OS)         =    -0.004486345643 [Eh]
    Exch-Disp20         =     0.001364238937 [Eh]
    Exch-Disp20 (SS)    =     0.000887158183 [Eh]
    Exch-Disp20 (OS)    =     0.000477080755 [Eh]

    SAPT Results 
  --------------------------------------------------------------------------------------------------------
    Electrostatics                -12.37429504 [mEh]      -7.76498737 [kcal/mol]     -32.48870715 [kJ/mol]
      Elst10,r                    -12.37429504 [mEh]      -7.76498737 [kcal/mol]     -32.48870715 [kJ/mol]

    Exchange                       14.98489575 [mEh]       9.40316405 [kcal/mol]      39.34283837 [kJ/mol]
      Exch10                       14.98489575 [mEh]       9.40316405 [kcal/mol]      39.34283837 [kJ/mol]
      Exch10(S^2)                  14.85591910 [mEh]       9.32222998 [kcal/mol]      39.00421023 [kJ/mol]

    Induction                      -5.27088398 [mEh]      -3.30752964 [kcal/mol]     -13.83870399 [kJ/mol]
      Ind20,r                      -9.20990771 [mEh]      -5.77930434 [kcal/mol]     -24.18060936 [kJ/mol]
      Exch-Ind20,r                  6.14988517 [mEh]       3.85911120 [kcal/mol]      16.14652128 [kJ/mol]
      delta HF,r (2)               -2.21086144 [mEh]      -1.38733650 [kcal/mol]      -5.80461592 [kJ/mol]

    Dispersion                     -7.60845235 [mEh]      -4.77437593 [kcal/mol]     -19.97598889 [kJ/mol]
      Disp20                       -8.97269129 [mEh]      -5.63044879 [kcal/mol]     -23.55779773 [kJ/mol]
      Exch-Disp20                   1.36423894 [mEh]       0.85607286 [kcal/mol]       3.58180884 [kJ/mol]
      Disp20 (SS)                  -4.48634564 [mEh]      -2.81522439 [kcal/mol]     -11.77889886 [kJ/mol]
      Disp20 (OS)                  -4.48634564 [mEh]      -2.81522439 [kcal/mol]     -11.77889886 [kJ/mol]
      Exch-Disp20 (SS)              0.88715818 [mEh]       0.55670016 [kcal/mol]       2.32923349 [kJ/mol]
      Exch-Disp20 (OS)              0.47708075 [mEh]       0.29937269 [kcal/mol]       1.25257535 [kJ/mol]

  Total HF                         -2.66028328 [mEh]      -1.66935296 [kcal/mol]      -6.98457278 [kJ/mol]
  Total SAPT0                     -10.26873563 [mEh]      -6.44372889 [kcal/mol]     -26.96056167 [kJ/mol]

  Special recipe for scaled SAPT0 (see Manual):
    Electrostatics sSAPT0         -12.37429504 [mEh]      -7.76498737 [kcal/mol]     -32.48870715 [kJ/mol]
    Exchange sSAPT0                14.98489575 [mEh]       9.40316405 [kcal/mol]      39.34283837 [kJ/mol]
    Induction sSAPT0               -5.10931246 [mEh]      -3.20614197 [kcal/mol]     -13.41449801 [kJ/mol]
    Dispersion sSAPT0              -7.57261068 [mEh]      -4.75188494 [kcal/mol]     -19.88188659 [kJ/mol]
  Total sSAPT0                    -10.07132243 [mEh]      -6.31985024 [kcal/mol]     -26.44225338 [kJ/mol]
  --------------------------------------------------------------------------------------------------------

*** tstop() called on r282 at Sat Sep 11 00:26:23 2021
Module time:
	user time   =      91.34 seconds =       1.52 minutes
	system time =      16.13 seconds =       0.27 minutes
	total time  =        109 seconds =       1.82 minutes
Total time:
	user time   =     197.49 seconds =       3.29 minutes
	system time =      18.60 seconds =       0.31 minutes
	total time  =        218 seconds =       3.63 minutes

    Psi4 stopped on: Saturday, 11 September 2021 12:26AM
    Psi4 wall time for execution: 0:03:37.28

*** Psi4 exiting successfully. Buy a developer a beer!
