
    -----------------------------------------------------------------------
          Psi4: An Open-Source Ab Initio Electronic Structure Package
                               Psi4 1.3.2 release

                         Git: Rev {HEAD} ecbda83 


    R. M. Parrish, L. A. Burns, D. G. A. Smith, A. C. Simmonett,
    A. E. DePrince III, E. G. Hohenstein, U. Bozkaya, A. Yu. Sokolov,
    R. Di Remigio, R. M. Richard, J. F. Gonthier, A. M. James,
    H. R. McAlexander, A. Kumar, M. Saitow, X. Wang, B. P. Pritchard,
    P. Verma, H. F. Schaefer III, K. Patkowski, R. A. King, E. F. Valeev,
    F. A. Evangelista, J. M. Turney, T. D. Crawford, and C. D. Sherrill,
    J. Chem. Theory Comput. 13(7) pp 3185--3197 (2017).
    (doi: 10.1021/acs.jctc.7b00174)


                         Additional Contributions by
    P. Kraus, H. Kruse, M. H. Lechner, M. C. Schieber, R. A. Shaw,
    A. Alenaizan, R. Galvelis, Z. L. Glick, S. Lehtola, and J. P. Misiewicz

    -----------------------------------------------------------------------


    Psi4 started on: Saturday, 11 September 2021 12:18AM

    Process ID: 57368
    Host:       r282
    PSIDATADIR: /home/r08543048/miniconda3/share/psi4
    Memory:     500.0 MiB
    Threads:    1
    
  ==> Input File <==

--------------------------------------------------------------------------
# Any line starting with the # character is a comment line
#! Sample  computation

memory 22 gb

molecule Dimer {
0 1
 C  2.490034   -0.512009   -0.059070
 O  2.167821    0.749206   -0.372116
 O  1.742180   -1.333246    0.418163
 H  3.540327   -0.698251   -0.300047
 H  1.225478    0.887965   -0.139129






  
  
  
  
  
  
    
    
 --
0 1
 C   -0.824640    1.932087    0.157241
 C   -1.016086    0.643263    0.468579
 C   -1.486457   -0.406832   -0.484425
 C   -2.817540   -1.009668   -0.032835
 H   -0.505125    2.650312    0.900132
 H   -0.998569    2.293519   -0.849032
 H   -0.836295    0.318288    1.489786
 H   -1.585964    0.023542   -1.483005
 H   -0.733100   -1.196502   -0.535534
 H   -2.724411   -1.445058    0.962192
 H   -3.594753   -0.246863    0.003976
 H   -3.139463   -1.795678   -0.714656
   
   
   




units angstrom

no_reorient
symmetry c1
}

set globals{
  basis jun-cc-pvtz
}

energy('sapt0')


--------------------------------------------------------------------------

  Memory set to  20.489 GiB by Python driver.

  //>>>>>>>>>>>>>>>>>>>>>>>>>>>>>>>>>>>//
  //              Dimer HF             //
  //<<<<<<<<<<<<<<<<<<<<<<<<<<<<<<<<<<<//


*** tstart() called on r282
*** at Sat Sep 11 00:18:58 2021

   => Loading Basis Set <=

    Name: JUN-CC-PVTZ
    Role: ORBITAL
    Keyword: BASIS
    atoms 1, 6-9     entry C          line   217 file /home/r08543048/miniconda3/share/psi4/basis/jun-cc-pvtz.gbs 
    atoms 2-3        entry O          line   305 file /home/r08543048/miniconda3/share/psi4/basis/jun-cc-pvtz.gbs 
    atoms 4-5, 10-17 entry H          line    36 file /home/r08543048/miniconda3/share/psi4/basis/jun-cc-pvtz.gbs 


         ---------------------------------------------------------
                                   SCF
               by Justin Turney, Rob Parrish, Andy Simmonett
                          and Daniel G. A. Smith
                              RHF Reference
                        1 Threads,  20980 MiB Core
         ---------------------------------------------------------

  ==> Geometry <==

    Molecular point group: c1
    Full point group: C1

    Geometry (in Angstrom), charge = 0, multiplicity = 1:

       Center              X                  Y                   Z               Mass       
    ------------   -----------------  -----------------  -----------------  -----------------
         C            2.399321894179    -0.504346347844    -0.065535044795    12.000000000000
         O            2.077108894179     0.756868652156    -0.378581044795    15.994914619570
         O            1.651467894179    -1.325583347844     0.411697955205    15.994914619570
         H            3.449614894179    -0.690588347844    -0.306512044795     1.007825032230
         H            1.134765894179     0.895627652156    -0.145594044795     1.007825032230
         C           -0.915352105821     1.939749652156     0.150775955205    12.000000000000
         C           -1.106798105821     0.650925652156     0.462113955205    12.000000000000
         C           -1.577169105821    -0.399169347844    -0.490890044795    12.000000000000
         C           -2.908252105821    -1.002005347844    -0.039300044795    12.000000000000
         H           -0.595837105821     2.657974652156     0.893666955205     1.007825032230
         H           -1.089281105821     2.301181652156    -0.855497044795     1.007825032230
         H           -0.927007105821     0.325950652156     1.483320955205     1.007825032230
         H           -1.676676105821     0.031204652156    -1.489470044795     1.007825032230
         H           -0.823812105821    -1.188839347844    -0.541999044795     1.007825032230
         H           -2.815123105821    -1.437395347844     0.955726955205     1.007825032230
         H           -3.685465105821    -0.239200347844    -0.002489044795     1.007825032230
         H           -3.230175105821    -1.788015347844    -0.721121044795     1.007825032230

  Running in c1 symmetry.

  Rotational constants: A =      0.11733  B =      0.04132  C =      0.03277 [cm^-1]
  Rotational constants: A =   3517.42316  B =   1238.68764  C =    982.44485 [MHz]
  Nuclear repulsion =  289.779638052686948

  Charge       = 0
  Multiplicity = 1
  Electrons    = 56
  Nalpha       = 28
  Nbeta        = 28

  ==> Algorithm <==

  SCF Algorithm Type is DF.
  DIIS enabled.
  MOM disabled.
  Fractional occupation disabled.
  Guess Type is SAD.
  Energy threshold   = 1.00e-08
  Density threshold  = 1.00e-08
  Integral threshold = 0.00e+00

  ==> Primary Basis <==

  Basis Set: JUN-CC-PVTZ
    Blend: JUN-CC-PVTZ
    Number of shells: 151
    Number of basis function: 413
    Number of Cartesian functions: 465
    Spherical Harmonics?: true
    Max angular momentum: 3

   => Loading Basis Set <=

    Name: (JUN-CC-PVTZ AUX)
    Role: JKFIT
    Keyword: DF_BASIS_SCF
    atoms 1, 6-9     entry C          line   152 file /home/r08543048/miniconda3/share/psi4/basis/jun-cc-pvtz-jkfit.gbs 
    atoms 2-3        entry O          line   272 file /home/r08543048/miniconda3/share/psi4/basis/jun-cc-pvtz-jkfit.gbs 
    atoms 4-5, 10-17 entry H          line    70 file /home/r08543048/miniconda3/share/psi4/basis/jun-cc-pvtz-jkfit.gbs 

  ==> Pre-Iterations <==

   -------------------------------------------------------
    Irrep   Nso     Nmo     Nalpha   Nbeta   Ndocc  Nsocc
   -------------------------------------------------------
     A        413     413       0       0       0       0
   -------------------------------------------------------
    Total     413     413      28      28      28       0
   -------------------------------------------------------

  ==> Integral Setup <==

  ==> DiskDFJK: Density-Fitted J/K Matrices <==

    J tasked:                  Yes
    K tasked:                  Yes
    wK tasked:                  No
    OpenMP threads:              1
    Integrals threads:           1
    Memory [MiB]:            15735
    Algorithm:                Core
    Integral Cache:           SAVE
    Schwarz Cutoff:          1E-12
    Fitting Condition:       1E-10

   => Auxiliary Basis Set <=

  Basis Set: (JUN-CC-PVTZ AUX)
    Blend: JUN-CC-PVTZ-JKFIT
    Number of shells: 303
    Number of basis function: 965
    Number of Cartesian functions: 1162
    Spherical Harmonics?: true
    Max angular momentum: 4

  Minimum eigenvalue in the overlap matrix is 3.4472184229E-05.
  Using Symmetric Orthogonalization.

  SCF Guess: Superposition of Atomic Densities via on-the-fly atomic UHF.

  ==> Iterations <==

                           Total Energy        Delta E     RMS |[F,P]|

   @DF-RHF iter SAD:  -343.53047678368387   -3.43530e+02   0.00000e+00 
   @DF-RHF iter   1:  -344.74814527765909   -1.21767e+00   1.75403e-03 DIIS
   @DF-RHF iter   2:  -344.94009214673753   -1.91947e-01   1.02491e-03 DIIS
   @DF-RHF iter   3:  -345.00583399307419   -6.57418e-02   1.88438e-04 DIIS
   @DF-RHF iter   4:  -345.00930204674796   -3.46805e-03   8.22242e-05 DIIS
   @DF-RHF iter   5:  -345.00994409772443   -6.42051e-04   1.76388e-05 DIIS
   @DF-RHF iter   6:  -345.00999122313380   -4.71254e-05   8.21184e-06 DIIS
   @DF-RHF iter   7:  -345.01000282435848   -1.16012e-05   2.76859e-06 DIIS
   @DF-RHF iter   8:  -345.01000496779631   -2.14344e-06   1.02374e-06 DIIS
   @DF-RHF iter   9:  -345.01000525434307   -2.86547e-07   2.54718e-07 DIIS
   @DF-RHF iter  10:  -345.01000527036348   -1.60204e-08   8.32801e-08 DIIS
   @DF-RHF iter  11:  -345.01000527165911   -1.29563e-09   2.89116e-08 DIIS
   @DF-RHF iter  12:  -345.01000527179315   -1.34037e-10   8.68335e-09 DIIS
  Energy and wave function converged.


  ==> Post-Iterations <==

    Orbital Energies [Eh]
    ---------------------

    Doubly Occupied:                                                      

       1A    -20.612027     2A    -20.557332     3A    -11.388718  
       4A    -11.246312     5A    -11.231638     6A    -11.226826  
       7A    -11.216879     8A     -1.462891     9A     -1.364436  
      10A     -1.091560    11A     -0.997364    12A     -0.885756  
      13A     -0.862561    14A     -0.765890    15A     -0.714154  
      16A     -0.703979    17A     -0.652768    18A     -0.625509  
      19A     -0.614980    20A     -0.596848    21A     -0.586625  
      22A     -0.542867    23A     -0.522342    24A     -0.491940  
      25A     -0.484981    26A     -0.483853    27A     -0.464051  
      28A     -0.374527  

    Virtual:                                                              

      29A      0.050771    30A      0.053682    31A      0.058741  
      32A      0.063762    33A      0.077010    34A      0.082650  
      35A      0.084492    36A      0.087612    37A      0.097320  
      38A      0.109426    39A      0.113880    40A      0.121089  
      41A      0.128163    42A      0.129499    43A      0.144776  
      44A      0.157098    45A      0.167839    46A      0.170333  
      47A      0.183498    48A      0.197326    49A      0.198768  
      50A      0.205113    51A      0.215826    52A      0.224630  
      53A      0.227662    54A      0.245806    55A      0.255089  
      56A      0.257544    57A      0.274917    58A      0.275044  
      59A      0.285223    60A      0.288075    61A      0.297061  
      62A      0.300412    63A      0.311154    64A      0.317708  
      65A      0.319788    66A      0.334337    67A      0.339208  
      68A      0.345553    69A      0.353543    70A      0.355288  
      71A      0.365461    72A      0.372609    73A      0.378557  
      74A      0.393401    75A      0.405135    76A      0.408906  
      77A      0.413500    78A      0.419019    79A      0.434191  
      80A      0.445291    81A      0.456665    82A      0.469986  
      83A      0.481213    84A      0.483610    85A      0.491845  
      86A      0.498391    87A      0.517059    88A      0.519942  
      89A      0.524394    90A      0.533682    91A      0.547680  
      92A      0.557130    93A      0.574821    94A      0.580092  
      95A      0.589013    96A      0.597803    97A      0.603967  
      98A      0.622954    99A      0.635828   100A      0.641881  
     101A      0.661795   102A      0.675725   103A      0.681970  
     104A      0.702873   105A      0.725529   106A      0.727004  
     107A      0.739990   108A      0.744715   109A      0.759048  
     110A      0.775981   111A      0.779577   112A      0.788476  
     113A      0.798810   114A      0.808927   115A      0.820674  
     116A      0.821405   117A      0.835160   118A      0.843728  
     119A      0.849701   120A      0.853710   121A      0.885517  
     122A      0.886765   123A      0.896613   124A      0.911861  
     125A      0.914173   126A      0.926725   127A      0.936931  
     128A      0.953419   129A      0.968143   130A      0.983352  
     131A      1.002890   132A      1.011211   133A      1.020638  
     134A      1.028922   135A      1.039067   136A      1.067807  
     137A      1.082452   138A      1.086300   139A      1.095235  
     140A      1.109726   141A      1.133566   142A      1.142560  
     143A      1.147621   144A      1.170193   145A      1.184187  
     146A      1.202907   147A      1.230524   148A      1.241633  
     149A      1.242936   150A      1.255411   151A      1.264325  
     152A      1.284646   153A      1.306152   154A      1.317702  
     155A      1.328836   156A      1.339620   157A      1.345124  
     158A      1.365790   159A      1.377664   160A      1.383494  
     161A      1.395476   162A      1.405156   163A      1.415338  
     164A      1.428029   165A      1.431178   166A      1.448686  
     167A      1.449967   168A      1.481291   169A      1.497064  
     170A      1.505928   171A      1.517279   172A      1.552536  
     173A      1.567292   174A      1.570089   175A      1.597880  
     176A      1.613494   177A      1.616978   178A      1.640106  
     179A      1.660444   180A      1.672203   181A      1.689167  
     182A      1.710673   183A      1.728444   184A      1.743379  
     185A      1.765977   186A      1.772270   187A      1.801081  
     188A      1.817664   189A      1.823943   190A      1.845624  
     191A      1.854145   192A      1.901907   193A      1.930248  
     194A      1.936270   195A      1.949223   196A      2.021970  
     197A      2.069929   198A      2.112401   199A      2.157156  
     200A      2.199543   201A      2.214715   202A      2.245001  
     203A      2.295010   204A      2.322140   205A      2.362740  
     206A      2.392872   207A      2.420415   208A      2.499361  
     209A      2.571642   210A      2.600000   211A      2.656073  
     212A      2.727516   213A      2.750324   214A      2.759096  
     215A      2.772115   216A      2.805636   217A      2.830301  
     218A      2.840005   219A      2.855017   220A      2.879797  
     221A      2.898294   222A      2.904314   223A      2.926576  
     224A      2.951397   225A      2.978082   226A      3.001447  
     227A      3.022378   228A      3.038555   229A      3.080644  
     230A      3.087950   231A      3.102856   232A      3.118909  
     233A      3.121367   234A      3.133196   235A      3.144209  
     236A      3.165496   237A      3.198808   238A      3.209476  
     239A      3.236652   240A      3.244881   241A      3.268419  
     242A      3.277746   243A      3.283260   244A      3.292104  
     245A      3.316400   246A      3.323145   247A      3.336210  
     248A      3.365038   249A      3.376653   250A      3.382176  
     251A      3.408634   252A      3.411111   253A      3.433508  
     254A      3.448620   255A      3.459710   256A      3.471169  
     257A      3.488847   258A      3.493996   259A      3.499709  
     260A      3.511819   261A      3.523284   262A      3.531919  
     263A      3.545436   264A      3.555881   265A      3.563336  
     266A      3.575684   267A      3.596381   268A      3.632962  
     269A      3.635254   270A      3.643677   271A      3.668727  
     272A      3.699654   273A      3.705588   274A      3.724454  
     275A      3.740491   276A      3.745046   277A      3.767774  
     278A      3.797268   279A      3.814990   280A      3.835788  
     281A      3.841895   282A      3.852759   283A      3.876742  
     284A      3.883830   285A      3.899542   286A      3.917620  
     287A      3.930968   288A      3.948690   289A      3.961936  
     290A      3.980035   291A      3.993305   292A      4.013309  
     293A      4.058114   294A      4.065877   295A      4.102865  
     296A      4.119081   297A      4.174960   298A      4.184277  
     299A      4.198790   300A      4.219434   301A      4.235170  
     302A      4.252005   303A      4.270149   304A      4.295477  
     305A      4.298514   306A      4.306478   307A      4.314850  
     308A      4.334241   309A      4.347592   310A      4.355742  
     311A      4.388123   312A      4.390686   313A      4.399836  
     314A      4.417737   315A      4.448260   316A      4.452364  
     317A      4.462793   318A      4.478255   319A      4.488925  
     320A      4.518228   321A      4.539052   322A      4.576756  
     323A      4.591879   324A      4.620333   325A      4.626861  
     326A      4.647567   327A      4.651587   328A      4.669891  
     329A      4.699802   330A      4.723764   331A      4.749367  
     332A      4.754141   333A      4.792259   334A      4.802997  
     335A      4.838930   336A      4.862722   337A      4.900919  
     338A      4.923667   339A      4.957497   340A      5.004485  
     341A      5.014492   342A      5.046296   343A      5.056805  
     344A      5.066476   345A      5.104142   346A      5.181644  
     347A      5.204701   348A      5.224230   349A      5.238520  
     350A      5.245232   351A      5.250571   352A      5.279928  
     353A      5.305370   354A      5.316625   355A      5.356217  
     356A      5.364738   357A      5.394344   358A      5.406387  
     359A      5.426406   360A      5.504136   361A      5.581048  
     362A      5.614702   363A      5.632589   364A      5.648705  
     365A      5.664130   366A      5.673143   367A      5.721321  
     368A      5.744186   369A      5.753631   370A      5.784605  
     371A      5.812253   372A      5.820943   373A      5.879071  
     374A      5.898441   375A      5.917277   376A      5.922645  
     377A      5.951705   378A      6.014827   379A      6.056472  
     380A      6.177163   381A      6.208332   382A      6.254547  
     383A      6.374686   384A      6.473099   385A      6.489864  
     386A      6.504079   387A      6.516846   388A      6.591203  
     389A      6.699274   390A      6.747546   391A      6.833166  
     392A      6.950052   393A      6.978594   394A      7.142918  
     395A      7.189320   396A      7.234015   397A      7.243936  
     398A      7.330648   399A      7.372193   400A      7.420167  
     401A      7.491417   402A      7.610859   403A      7.695995  
     404A      7.791704   405A      7.954309   406A      8.146315  
     407A     12.566243   408A     12.645171   409A     13.681975  
     410A     14.114476   411A     14.488432   412A     14.653970  
     413A     15.323440  

    Final Occupation by Irrep:
              A 
    DOCC [    28 ]

  @DF-RHF Final Energy:  -345.01000527179315

   => Energetics <=

    Nuclear Repulsion Energy =            289.7796380526869484
    One-Electron Energy =               -1044.0400568852792276
    Two-Electron Energy =                 409.2504135607990747
    Total Energy =                       -345.0100052717931476

Computation Completed


Properties will be evaluated at   0.000000,   0.000000,   0.000000 [a0]

Properties computed using the SCF density matrix

  Nuclear Dipole Moment: [e a0]
     X:    -9.5996      Y:     0.8109      Z:    -0.6842

  Electronic Dipole Moment: [e a0]
     X:     9.5425      Y:    -0.3987      Z:     0.4526

  Dipole Moment: [e a0]
     X:    -0.0570      Y:     0.4122      Z:    -0.2316     Total:     0.4762

  Dipole Moment: [D]
     X:    -0.1450      Y:     1.0477      Z:    -0.5887     Total:     1.2105


*** tstop() called on r282 at Sat Sep 11 00:19:30 2021
Module time:
	user time   =      30.74 seconds =       0.51 minutes
	system time =       0.87 seconds =       0.01 minutes
	total time  =         32 seconds =       0.53 minutes
Total time:
	user time   =      30.74 seconds =       0.51 minutes
	system time =       0.87 seconds =       0.01 minutes
	total time  =         32 seconds =       0.53 minutes

  //>>>>>>>>>>>>>>>>>>>>>>>>>>>>>>>>>>>//
  //            Monomer A HF           //
  //<<<<<<<<<<<<<<<<<<<<<<<<<<<<<<<<<<<//


*** tstart() called on r282
*** at Sat Sep 11 00:19:30 2021

   => Loading Basis Set <=

    Name: JUN-CC-PVTZ
    Role: ORBITAL
    Keyword: BASIS
    atoms 1, 6-9     entry C          line   217 file /home/r08543048/miniconda3/share/psi4/basis/jun-cc-pvtz.gbs 
    atoms 2-3        entry O          line   305 file /home/r08543048/miniconda3/share/psi4/basis/jun-cc-pvtz.gbs 
    atoms 4-5, 10-17 entry H          line    36 file /home/r08543048/miniconda3/share/psi4/basis/jun-cc-pvtz.gbs 


         ---------------------------------------------------------
                                   SCF
               by Justin Turney, Rob Parrish, Andy Simmonett
                          and Daniel G. A. Smith
                              RHF Reference
                        1 Threads,  20980 MiB Core
         ---------------------------------------------------------

  ==> Geometry <==

    Molecular point group: c1
    Full point group: C1

    Geometry (in Angstrom), charge = 0, multiplicity = 1:

       Center              X                  Y                   Z               Mass       
    ------------   -----------------  -----------------  -----------------  -----------------
         C            2.399321894179    -0.504346347844    -0.065535044795    12.000000000000
         O            2.077108894179     0.756868652156    -0.378581044795    15.994914619570
         O            1.651467894179    -1.325583347844     0.411697955205    15.994914619570
         H            3.449614894179    -0.690588347844    -0.306512044795     1.007825032230
         H            1.134765894179     0.895627652156    -0.145594044795     1.007825032230
      Gh(C)          -0.915352105821     1.939749652156     0.150775955205    12.000000000000
      Gh(C)          -1.106798105821     0.650925652156     0.462113955205    12.000000000000
      Gh(C)          -1.577169105821    -0.399169347844    -0.490890044795    12.000000000000
      Gh(C)          -2.908252105821    -1.002005347844    -0.039300044795    12.000000000000
      Gh(H)          -0.595837105821     2.657974652156     0.893666955205     1.007825032230
      Gh(H)          -1.089281105821     2.301181652156    -0.855497044795     1.007825032230
      Gh(H)          -0.927007105821     0.325950652156     1.483320955205     1.007825032230
      Gh(H)          -1.676676105821     0.031204652156    -1.489470044795     1.007825032230
      Gh(H)          -0.823812105821    -1.188839347844    -0.541999044795     1.007825032230
      Gh(H)          -2.815123105821    -1.437395347844     0.955726955205     1.007825032230
      Gh(H)          -3.685465105821    -0.239200347844    -0.002489044795     1.007825032230
      Gh(H)          -3.230175105821    -1.788015347844    -0.721121044795     1.007825032230

  Running in c1 symmetry.

  Rotational constants: A =      0.11733  B =      0.04132  C =      0.03277 [cm^-1]
  Rotational constants: A =   3517.42316  B =   1238.68764  C =    982.44485 [MHz]
  Nuclear repulsion =   70.010147180053437

  Charge       = 0
  Multiplicity = 1
  Electrons    = 24
  Nalpha       = 12
  Nbeta        = 12

  ==> Algorithm <==

  SCF Algorithm Type is DF.
  DIIS enabled.
  MOM disabled.
  Fractional occupation disabled.
  Guess Type is SAD.
  Energy threshold   = 1.00e-08
  Density threshold  = 1.00e-08
  Integral threshold = 0.00e+00

  ==> Primary Basis <==

  Basis Set: JUN-CC-PVTZ
    Blend: JUN-CC-PVTZ
    Number of shells: 151
    Number of basis function: 413
    Number of Cartesian functions: 465
    Spherical Harmonics?: true
    Max angular momentum: 3

   => Loading Basis Set <=

    Name: (JUN-CC-PVTZ AUX)
    Role: JKFIT
    Keyword: DF_BASIS_SCF
    atoms 1, 6-9     entry C          line   152 file /home/r08543048/miniconda3/share/psi4/basis/jun-cc-pvtz-jkfit.gbs 
    atoms 2-3        entry O          line   272 file /home/r08543048/miniconda3/share/psi4/basis/jun-cc-pvtz-jkfit.gbs 
    atoms 4-5, 10-17 entry H          line    70 file /home/r08543048/miniconda3/share/psi4/basis/jun-cc-pvtz-jkfit.gbs 

  ==> Pre-Iterations <==

   -------------------------------------------------------
    Irrep   Nso     Nmo     Nalpha   Nbeta   Ndocc  Nsocc
   -------------------------------------------------------
     A        413     413       0       0       0       0
   -------------------------------------------------------
    Total     413     413      12      12      12       0
   -------------------------------------------------------

  ==> Integral Setup <==

  ==> DiskDFJK: Density-Fitted J/K Matrices <==

    J tasked:                  Yes
    K tasked:                  Yes
    wK tasked:                  No
    OpenMP threads:              1
    Integrals threads:           1
    Memory [MiB]:            15735
    Algorithm:                Core
    Integral Cache:           LOAD
    Schwarz Cutoff:          1E-12
    Fitting Condition:       1E-10

   => Auxiliary Basis Set <=

  Basis Set: (JUN-CC-PVTZ AUX)
    Blend: JUN-CC-PVTZ-JKFIT
    Number of shells: 303
    Number of basis function: 965
    Number of Cartesian functions: 1162
    Spherical Harmonics?: true
    Max angular momentum: 4

  Minimum eigenvalue in the overlap matrix is 3.4472184229E-05.
  Using Symmetric Orthogonalization.

  SCF Guess: Superposition of Atomic Densities via on-the-fly atomic UHF.

  ==> Iterations <==

                           Total Energy        Delta E     RMS |[F,P]|

   @DF-RHF iter SAD:  -187.99829691192977   -1.87998e+02   0.00000e+00 
   @DF-RHF iter   1:  -188.73572129265889   -7.37424e-01   1.27008e-03 DIIS
   @DF-RHF iter   2:  -188.79779844524919   -6.20772e-02   9.00116e-04 DIIS
   @DF-RHF iter   3:  -188.84107709584288   -4.32787e-02   1.03319e-04 DIIS
   @DF-RHF iter   4:  -188.84215773379449   -1.08064e-03   5.54028e-05 DIIS
   @DF-RHF iter   5:  -188.84242820698123   -2.70473e-04   1.35312e-05 DIIS
   @DF-RHF iter   6:  -188.84247032168378   -4.21147e-05   5.92812e-06 DIIS
   @DF-RHF iter   7:  -188.84247989610054   -9.57442e-06   2.08211e-06 DIIS
   @DF-RHF iter   8:  -188.84248092139791   -1.02530e-06   6.19826e-07 DIIS
   @DF-RHF iter   9:  -188.84248101189860   -9.05007e-08   1.78311e-07 DIIS
   @DF-RHF iter  10:  -188.84248101926124   -7.36264e-09   4.09410e-08 DIIS
   @DF-RHF iter  11:  -188.84248101960702   -3.45779e-10   7.18695e-09 DIIS
  Energy and wave function converged.


  ==> Post-Iterations <==

    Orbital Energies [Eh]
    ---------------------

    Doubly Occupied:                                                      

       1A    -20.632728     2A    -20.567166     3A    -11.398418  
       4A     -1.476991     5A     -1.375432     6A     -0.898702  
       7A     -0.726578     8A     -0.713145     9A     -0.639202  
      10A     -0.603276    11A     -0.496047    12A     -0.474256  

    Virtual:                                                              

      13A      0.027473    14A      0.044608    15A      0.053436  
      16A      0.060025    17A      0.069288    18A      0.076229  
      19A      0.081035    20A      0.084025    21A      0.091875  
      22A      0.105611    23A      0.108887    24A      0.114410  
      25A      0.122827    26A      0.128143    27A      0.133682  
      28A      0.144283    29A      0.150744    30A      0.158837  
      31A      0.167141    32A      0.175400    33A      0.180278  
      34A      0.198310    35A      0.212385    36A      0.219378  
      37A      0.228435    38A      0.238103    39A      0.246342  
      40A      0.249727    41A      0.261228    42A      0.270587  
      43A      0.273863    44A      0.288556    45A      0.292342  
      46A      0.297546    47A      0.309124    48A      0.323782  
      49A      0.326681    50A      0.335160    51A      0.343391  
      52A      0.352834    53A      0.356997    54A      0.366622  
      55A      0.377893    56A      0.382712    57A      0.385878  
      58A      0.393608    59A      0.397349    60A      0.405223  
      61A      0.426219    62A      0.431221    63A      0.441796  
      64A      0.450764    65A      0.471709    66A      0.477353  
      67A      0.491064    68A      0.498803    69A      0.505851  
      70A      0.507107    71A      0.515076    72A      0.518920  
      73A      0.537071    74A      0.553306    75A      0.557059  
      76A      0.562996    77A      0.573079    78A      0.587196  
      79A      0.596615    80A      0.604604    81A      0.607805  
      82A      0.611765    83A      0.624394    84A      0.631061  
      85A      0.644045    86A      0.656877    87A      0.663079  
      88A      0.676845    89A      0.683603    90A      0.692383  
      91A      0.702802    92A      0.727620    93A      0.739027  
      94A      0.752147    95A      0.762122    96A      0.768134  
      97A      0.780562    98A      0.806284    99A      0.822814  
     100A      0.836757   101A      0.843977   102A      0.847718  
     103A      0.883991   104A      0.905967   105A      0.924008  
     106A      0.951325   107A      0.986017   108A      1.030314  
     109A      1.047441   110A      1.050418   111A      1.063889  
     112A      1.066691   113A      1.082769   114A      1.100625  
     115A      1.113690   116A      1.129917   117A      1.136266  
     118A      1.154472   119A      1.160243   120A      1.165590  
     121A      1.191583   122A      1.198686   123A      1.213714  
     124A      1.223368   125A      1.235557   126A      1.240230  
     127A      1.243687   128A      1.255375   129A      1.268704  
     130A      1.274799   131A      1.289689   132A      1.301238  
     133A      1.310658   134A      1.319261   135A      1.328156  
     136A      1.334370   137A      1.339107   138A      1.357593  
     139A      1.366450   140A      1.374909   141A      1.383305  
     142A      1.402688   143A      1.421451   144A      1.426535  
     145A      1.433856   146A      1.440046   147A      1.454654  
     148A      1.464417   149A      1.476758   150A      1.486059  
     151A      1.493346   152A      1.516988   153A      1.525689  
     154A      1.545444   155A      1.546879   156A      1.557514  
     157A      1.577364   158A      1.590689   159A      1.594144  
     160A      1.607877   161A      1.629496   162A      1.642267  
     163A      1.660726   164A      1.693702   165A      1.715375  
     166A      1.727941   167A      1.731720   168A      1.753491  
     169A      1.791713   170A      1.822737   171A      1.850633  
     172A      1.857909   173A      1.880381   174A      1.927853  
     175A      1.962156   176A      1.964325   177A      1.987686  
     178A      2.039482   179A      2.062756   180A      2.086039  
     181A      2.117175   182A      2.135088   183A      2.163047  
     184A      2.188398   185A      2.192710   186A      2.212359  
     187A      2.236071   188A      2.259381   189A      2.294958  
     190A      2.319161   191A      2.361133   192A      2.372113  
     193A      2.380050   194A      2.406193   195A      2.417725  
     196A      2.441723   197A      2.467119   198A      2.488432  
     199A      2.510140   200A      2.548435   201A      2.573136  
     202A      2.583170   203A      2.614994   204A      2.636650  
     205A      2.676515   206A      2.725514   207A      2.761573  
     208A      2.887958   209A      2.929125   210A      3.108138  
     211A      3.112410   212A      3.258531   213A      3.305903  
     214A      3.342913   215A      3.421439   216A      3.463168  
     217A      3.469134   218A      3.476428   219A      3.488999  
     220A      3.515668   221A      3.519274   222A      3.549831  
     223A      3.566676   224A      3.577176   225A      3.598123  
     226A      3.600085   227A      3.613060   228A      3.622547  
     229A      3.631547   230A      3.654963   231A      3.683017  
     232A      3.697725   233A      3.707706   234A      3.729247  
     235A      3.729423   236A      3.775095   237A      3.783231  
     238A      3.810162   239A      3.816373   240A      3.830153  
     241A      3.835818   242A      3.848910   243A      3.870961  
     244A      3.886300   245A      3.894943   246A      3.902086  
     247A      3.927035   248A      3.943519   249A      3.955243  
     250A      3.975184   251A      3.989683   252A      4.027316  
     253A      4.035947   254A      4.075404   255A      4.090189  
     256A      4.092015   257A      4.101072   258A      4.150013  
     259A      4.166131   260A      4.189580   261A      4.202481  
     262A      4.207802   263A      4.226663   264A      4.242765  
     265A      4.264372   266A      4.289690   267A      4.314852  
     268A      4.330805   269A      4.344494   270A      4.358754  
     271A      4.370228   272A      4.386982   273A      4.438692  
     274A      4.446479   275A      4.469990   276A      4.483162  
     277A      4.497183   278A      4.517803   279A      4.528383  
     280A      4.542621   281A      4.562249   282A      4.568842  
     283A      4.590911   284A      4.607233   285A      4.621340  
     286A      4.628356   287A      4.650201   288A      4.667469  
     289A      4.678941   290A      4.684917   291A      4.698923  
     292A      4.722202   293A      4.729288   294A      4.742367  
     295A      4.745871   296A      4.778431   297A      4.801240  
     298A      4.813696   299A      4.815742   300A      4.826199  
     301A      4.831391   302A      4.845462   303A      4.860666  
     304A      4.871372   305A      4.883213   306A      4.890594  
     307A      4.907507   308A      4.926046   309A      4.945763  
     310A      4.977030   311A      4.981400   312A      5.011776  
     313A      5.021730   314A      5.024207   315A      5.035419  
     316A      5.042484   317A      5.057812   318A      5.086158  
     319A      5.104351   320A      5.142967   321A      5.152678  
     322A      5.184829   323A      5.221646   324A      5.239554  
     325A      5.250784   326A      5.260057   327A      5.323324  
     328A      5.345617   329A      5.374232   330A      5.391071  
     331A      5.439127   332A      5.472089   333A      5.484071  
     334A      5.569027   335A      5.602587   336A      5.628587  
     337A      5.642956   338A      5.657077   339A      5.676247  
     340A      5.712236   341A      5.738754   342A      5.800698  
     343A      5.824436   344A      5.829571   345A      5.864540  
     346A      5.884234   347A      5.901425   348A      5.963586  
     349A      6.025874   350A      6.042259   351A      6.048389  
     352A      6.065378   353A      6.141651   354A      6.181792  
     355A      6.200733   356A      6.242351   357A      6.280220  
     358A      6.329321   359A      6.342722   360A      6.386768  
     361A      6.402785   362A      6.465270   363A      6.496205  
     364A      6.500103   365A      6.641807   366A      6.721291  
     367A      6.739903   368A      6.774708   369A      6.824997  
     370A      6.855353   371A      6.942622   372A      6.950034  
     373A      6.963957   374A      7.086468   375A      7.126531  
     376A      7.172318   377A      7.221130   378A      7.233284  
     379A      7.314002   380A      7.341907   381A      7.376536  
     382A      7.393864   383A      7.412765   384A      7.471833  
     385A      7.480411   386A      7.565024   387A      7.600499  
     388A      7.607109   389A      7.686716   390A      7.688240  
     391A      7.700679   392A      7.778019   393A      7.839933  
     394A      7.889627   395A      7.935272   396A      7.964550  
     397A      7.992852   398A      8.110937   399A      8.152356  
     400A      8.283635   401A      8.426675   402A      8.795333  
     403A      9.442414   404A      9.693098   405A      9.876942  
     406A     10.202629   407A     12.632843   408A     13.706696  
     409A     14.636642   410A     41.624945   411A     44.825984  
     412A     45.545586   413A     47.153894  

    Final Occupation by Irrep:
              A 
    DOCC [    12 ]

  @DF-RHF Final Energy:  -188.84248101960702

   => Energetics <=

    Nuclear Repulsion Energy =             70.0101471800534370
    One-Electron Energy =                -397.7013705078514931
    Two-Electron Energy =                 138.8487423081910492
    Total Energy =                       -188.8424810196070212

Computation Completed


Properties will be evaluated at   0.000000,   0.000000,   0.000000 [a0]

Properties computed using the SCF density matrix

  Nuclear Dipole Moment: [e a0]
     X:    92.2355      Y:   -13.9287      Z:    -1.0968

  Electronic Dipole Moment: [e a0]
     X:   -91.9946      Y:    14.5575      Z:     0.8319

  Dipole Moment: [e a0]
     X:     0.2409      Y:     0.6288      Z:    -0.2648     Total:     0.7236

  Dipole Moment: [D]
     X:     0.6124      Y:     1.5983      Z:    -0.6731     Total:     1.8392


*** tstop() called on r282 at Sat Sep 11 00:19:45 2021
Module time:
	user time   =      14.62 seconds =       0.24 minutes
	system time =       0.39 seconds =       0.01 minutes
	total time  =         15 seconds =       0.25 minutes
Total time:
	user time   =      45.36 seconds =       0.76 minutes
	system time =       1.26 seconds =       0.02 minutes
	total time  =         47 seconds =       0.78 minutes

  //>>>>>>>>>>>>>>>>>>>>>>>>>>>>>>>>>>>//
  //            Monomer B HF           //
  //<<<<<<<<<<<<<<<<<<<<<<<<<<<<<<<<<<<//


*** tstart() called on r282
*** at Sat Sep 11 00:19:45 2021

   => Loading Basis Set <=

    Name: JUN-CC-PVTZ
    Role: ORBITAL
    Keyword: BASIS
    atoms 1, 6-9     entry C          line   217 file /home/r08543048/miniconda3/share/psi4/basis/jun-cc-pvtz.gbs 
    atoms 2-3        entry O          line   305 file /home/r08543048/miniconda3/share/psi4/basis/jun-cc-pvtz.gbs 
    atoms 4-5, 10-17 entry H          line    36 file /home/r08543048/miniconda3/share/psi4/basis/jun-cc-pvtz.gbs 


         ---------------------------------------------------------
                                   SCF
               by Justin Turney, Rob Parrish, Andy Simmonett
                          and Daniel G. A. Smith
                              RHF Reference
                        1 Threads,  20980 MiB Core
         ---------------------------------------------------------

  ==> Geometry <==

    Molecular point group: c1
    Full point group: C1

    Geometry (in Angstrom), charge = 0, multiplicity = 1:

       Center              X                  Y                   Z               Mass       
    ------------   -----------------  -----------------  -----------------  -----------------
      Gh(C)           2.399321894179    -0.504346347844    -0.065535044795    12.000000000000
      Gh(O)           2.077108894179     0.756868652156    -0.378581044795    15.994914619570
      Gh(O)           1.651467894179    -1.325583347844     0.411697955205    15.994914619570
      Gh(H)           3.449614894179    -0.690588347844    -0.306512044795     1.007825032230
      Gh(H)           1.134765894179     0.895627652156    -0.145594044795     1.007825032230
         C           -0.915352105821     1.939749652156     0.150775955205    12.000000000000
         C           -1.106798105821     0.650925652156     0.462113955205    12.000000000000
         C           -1.577169105821    -0.399169347844    -0.490890044795    12.000000000000
         C           -2.908252105821    -1.002005347844    -0.039300044795    12.000000000000
         H           -0.595837105821     2.657974652156     0.893666955205     1.007825032230
         H           -1.089281105821     2.301181652156    -0.855497044795     1.007825032230
         H           -0.927007105821     0.325950652156     1.483320955205     1.007825032230
         H           -1.676676105821     0.031204652156    -1.489470044795     1.007825032230
         H           -0.823812105821    -1.188839347844    -0.541999044795     1.007825032230
         H           -2.815123105821    -1.437395347844     0.955726955205     1.007825032230
         H           -3.685465105821    -0.239200347844    -0.002489044795     1.007825032230
         H           -3.230175105821    -1.788015347844    -0.721121044795     1.007825032230

  Running in c1 symmetry.

  Rotational constants: A =      0.11733  B =      0.04132  C =      0.03277 [cm^-1]
  Rotational constants: A =   3517.42316  B =   1238.68764  C =    982.44485 [MHz]
  Nuclear repulsion =  117.479517729717685

  Charge       = 0
  Multiplicity = 1
  Electrons    = 32
  Nalpha       = 16
  Nbeta        = 16

  ==> Algorithm <==

  SCF Algorithm Type is DF.
  DIIS enabled.
  MOM disabled.
  Fractional occupation disabled.
  Guess Type is SAD.
  Energy threshold   = 1.00e-08
  Density threshold  = 1.00e-08
  Integral threshold = 0.00e+00

  ==> Primary Basis <==

  Basis Set: JUN-CC-PVTZ
    Blend: JUN-CC-PVTZ
    Number of shells: 151
    Number of basis function: 413
    Number of Cartesian functions: 465
    Spherical Harmonics?: true
    Max angular momentum: 3

   => Loading Basis Set <=

    Name: (JUN-CC-PVTZ AUX)
    Role: JKFIT
    Keyword: DF_BASIS_SCF
    atoms 1, 6-9     entry C          line   152 file /home/r08543048/miniconda3/share/psi4/basis/jun-cc-pvtz-jkfit.gbs 
    atoms 2-3        entry O          line   272 file /home/r08543048/miniconda3/share/psi4/basis/jun-cc-pvtz-jkfit.gbs 
    atoms 4-5, 10-17 entry H          line    70 file /home/r08543048/miniconda3/share/psi4/basis/jun-cc-pvtz-jkfit.gbs 

  ==> Pre-Iterations <==

   -------------------------------------------------------
    Irrep   Nso     Nmo     Nalpha   Nbeta   Ndocc  Nsocc
   -------------------------------------------------------
     A        413     413       0       0       0       0
   -------------------------------------------------------
    Total     413     413      16      16      16       0
   -------------------------------------------------------

  ==> Integral Setup <==

  ==> DiskDFJK: Density-Fitted J/K Matrices <==

    J tasked:                  Yes
    K tasked:                  Yes
    wK tasked:                  No
    OpenMP threads:              1
    Integrals threads:           1
    Memory [MiB]:            15735
    Algorithm:                Core
    Integral Cache:           LOAD
    Schwarz Cutoff:          1E-12
    Fitting Condition:       1E-10

   => Auxiliary Basis Set <=

  Basis Set: (JUN-CC-PVTZ AUX)
    Blend: JUN-CC-PVTZ-JKFIT
    Number of shells: 303
    Number of basis function: 965
    Number of Cartesian functions: 1162
    Spherical Harmonics?: true
    Max angular momentum: 4

  Minimum eigenvalue in the overlap matrix is 3.4472184229E-05.
  Using Symmetric Orthogonalization.

  SCF Guess: Superposition of Atomic Densities via on-the-fly atomic UHF.

  ==> Iterations <==

                           Total Energy        Delta E     RMS |[F,P]|

   @DF-RHF iter SAD:  -155.38214072964848   -1.55382e+02   0.00000e+00 
   @DF-RHF iter   1:  -155.99483472485107   -6.12694e-01   1.26442e-03 DIIS
   @DF-RHF iter   2:  -156.13434682580220   -1.39512e-01   5.60195e-04 DIIS
   @DF-RHF iter   3:  -156.16225421504112   -2.79074e-02   1.08338e-04 DIIS
   @DF-RHF iter   4:  -156.16409554805884   -1.84133e-03   4.02500e-05 DIIS
   @DF-RHF iter   5:  -156.16426460581744   -1.69058e-04   7.48669e-06 DIIS
   @DF-RHF iter   6:  -156.16427345687237   -8.85105e-06   1.37131e-06 DIIS
   @DF-RHF iter   7:  -156.16427381017246   -3.53300e-07   3.64168e-07 DIIS
   @DF-RHF iter   8:  -156.16427383563791   -2.54655e-08   1.06946e-07 DIIS
   @DF-RHF iter   9:  -156.16427383806752   -2.42960e-09   4.48672e-08 DIIS
   @DF-RHF iter  10:  -156.16427383854952   -4.82004e-10   1.45023e-08 DIIS
   @DF-RHF iter  11:  -156.16427383860224   -5.27223e-11   3.76270e-09 DIIS
  Energy and wave function converged.


  ==> Post-Iterations <==

    Orbital Energies [Eh]
    ---------------------

    Doubly Occupied:                                                      

       1A    -11.231640     2A    -11.224828     3A    -11.217921  
       4A    -11.214607     5A     -1.081064     6A     -0.987476  
       7A     -0.856492     8A     -0.755451     9A     -0.643616  
      10A     -0.606689    11A     -0.585134    12A     -0.535131  
      13A     -0.518212    14A     -0.487526    15A     -0.476915  
      16A     -0.356273  

    Virtual:                                                              

      17A      0.042833    18A      0.052296    19A      0.055775  
      20A      0.058167    21A      0.072901    22A      0.080222  
      23A      0.084264    24A      0.086671    25A      0.099052  
      26A      0.107088    27A      0.111479    28A      0.117416  
      29A      0.128345    30A      0.131465    31A      0.145193  
      32A      0.156597    33A      0.167992    34A      0.175155  
      35A      0.179557    36A      0.187822    37A      0.194183  
      38A      0.199468    39A      0.205158    40A      0.211894  
      41A      0.218817    42A      0.233140    43A      0.241055  
      44A      0.249651    45A      0.260653    46A      0.279118  
      47A      0.288502    48A      0.290671    49A      0.298726  
      50A      0.311551    51A      0.316762    52A      0.325013  
      53A      0.334526    54A      0.342293    55A      0.350734  
      56A      0.355809    57A      0.364048    58A      0.372511  
      59A      0.375539    60A      0.383423    61A      0.397435  
      62A      0.401065    63A      0.411021    64A      0.417706  
      65A      0.420739    66A      0.428426    67A      0.434992  
      68A      0.448540    69A      0.454679    70A      0.460196  
      71A      0.465336    72A      0.485316    73A      0.493531  
      74A      0.498974    75A      0.506886    76A      0.516980  
      77A      0.522109    78A      0.528705    79A      0.535679  
      80A      0.546189    81A      0.560439    82A      0.570978  
      83A      0.579222    84A      0.590340    85A      0.604278  
      86A      0.623123    87A      0.645741    88A      0.673568  
      89A      0.687563    90A      0.698900    91A      0.714937  
      92A      0.735915    93A      0.740510    94A      0.754297  
      95A      0.765591    96A      0.770382    97A      0.776913  
      98A      0.781851    99A      0.800778   100A      0.809637  
     101A      0.823971   102A      0.828218   103A      0.829476  
     104A      0.839332   105A      0.843347   106A      0.855673  
     107A      0.881867   108A      0.894053   109A      0.897041  
     110A      0.909085   111A      0.914053   112A      0.919597  
     113A      0.945188   114A      0.959012   115A      0.968438  
     116A      0.981673   117A      0.995646   118A      1.000117  
     119A      1.016597   120A      1.024988   121A      1.025104  
     122A      1.036296   123A      1.051628   124A      1.059909  
     125A      1.070374   126A      1.082629   127A      1.094745  
     128A      1.100693   129A      1.108130   130A      1.135850  
     131A      1.147768   132A      1.153221   133A      1.167325  
     134A      1.193546   135A      1.221858   136A      1.238036  
     137A      1.252039   138A      1.272445   139A      1.279451  
     140A      1.286761   141A      1.310077   142A      1.323541  
     143A      1.342922   144A      1.364998   145A      1.370639  
     146A      1.379056   147A      1.390702   148A      1.412401  
     149A      1.439134   150A      1.443694   151A      1.453034  
     152A      1.480004   153A      1.483380   154A      1.500200  
     155A      1.514696   156A      1.533818   157A      1.558767  
     158A      1.577528   159A      1.586485   160A      1.596187  
     161A      1.611607   162A      1.622439   163A      1.632688  
     164A      1.642608   165A      1.650297   166A      1.666775  
     167A      1.691679   168A      1.707262   169A      1.712254  
     170A      1.744991   171A      1.765323   172A      1.788085  
     173A      1.799827   174A      1.805251   175A      1.823910  
     176A      1.835168   177A      1.857287   178A      1.890315  
     179A      1.910357   180A      1.918100   181A      1.941210  
     182A      1.951843   183A      1.964854   184A      2.033304  
     185A      2.061840   186A      2.108618   187A      2.137120  
     188A      2.178030   189A      2.259899   190A      2.317363  
     191A      2.491435   192A      2.535156   193A      2.605953  
     194A      2.662035   195A      2.679811   196A      2.725638  
     197A      2.750472   198A      2.758328   199A      2.767965  
     200A      2.782405   201A      2.805526   202A      2.818411  
     203A      2.827209   204A      2.853451   205A      2.857878  
     206A      2.876537   207A      2.907377   208A      2.911094  
     209A      2.921014   210A      2.939420   211A      2.957884  
     212A      2.975319   213A      2.987837   214A      2.997612  
     215A      3.019793   216A      3.035338   217A      3.041600  
     218A      3.076248   219A      3.095095   220A      3.102270  
     221A      3.120944   222A      3.135015   223A      3.145102  
     224A      3.164461   225A      3.183912   226A      3.217059  
     227A      3.232998   228A      3.243525   229A      3.248176  
     230A      3.277254   231A      3.300559   232A      3.308334  
     233A      3.321682   234A      3.340461   235A      3.350335  
     236A      3.368863   237A      3.392538   238A      3.406439  
     239A      3.422149   240A      3.428667   241A      3.447671  
     242A      3.466674   243A      3.494378   244A      3.499949  
     245A      3.503442   246A      3.514997   247A      3.527112  
     248A      3.552483   249A      3.563436   250A      3.570551  
     251A      3.575969   252A      3.597268   253A      3.643375  
     254A      3.680482   255A      3.692773   256A      3.704166  
     257A      3.710737   258A      3.718463   259A      3.742593  
     260A      3.745228   261A      3.781703   262A      3.800971  
     263A      3.819575   264A      3.838413   265A      3.857702  
     266A      3.871991   267A      3.883456   268A      3.901976  
     269A      3.923647   270A      3.964929   271A      3.986133  
     272A      4.003034   273A      4.032459   274A      4.049065  
     275A      4.078972   276A      4.080128   277A      4.115714  
     278A      4.126712   279A      4.179198   280A      4.197381  
     281A      4.202961   282A      4.225989   283A      4.244720  
     284A      4.268884   285A      4.298626   286A      4.305156  
     287A      4.324654   288A      4.337200   289A      4.350403  
     290A      4.360473   291A      4.369507   292A      4.389367  
     293A      4.409131   294A      4.411251   295A      4.414610  
     296A      4.429256   297A      4.449209   298A      4.457929  
     299A      4.463628   300A      4.489426   301A      4.497432  
     302A      4.517058   303A      4.537817   304A      4.560610  
     305A      4.575393   306A      4.593504   307A      4.623942  
     308A      4.640278   309A      4.667492   310A      4.689605  
     311A      4.700215   312A      4.729285   313A      4.759023  
     314A      4.762498   315A      4.774609   316A      4.797875  
     317A      4.807329   318A      4.831602   319A      4.850581  
     320A      4.868484   321A      4.905895   322A      4.953421  
     323A      4.965120   324A      4.975985   325A      5.002035  
     326A      5.035250   327A      5.056065   328A      5.068036  
     329A      5.094512   330A      5.121053   331A      5.138084  
     332A      5.206234   333A      5.229614   334A      5.239099  
     335A      5.249081   336A      5.284989   337A      5.301564  
     338A      5.308750   339A      5.322159   340A      5.377695  
     341A      5.396658   342A      5.410207   343A      5.431799  
     344A      5.441198   345A      5.511538   346A      5.586459  
     347A      5.622082   348A      5.636675   349A      5.674665  
     350A      5.731089   351A      5.746727   352A      5.752451  
     353A      5.756019   354A      5.784257   355A      5.823910  
     356A      5.913196   357A      5.922033   358A      5.942508  
     359A      5.975998   360A      6.029758   361A      6.151610  
     362A      6.163324   363A      6.190086   364A      6.288602  
     365A      6.391427   366A      6.447614   367A      6.473882  
     368A      6.487467   369A      6.494232   370A      6.503261  
     371A      6.507413   372A      6.603198   373A      6.706668  
     374A      6.742269   375A      6.810415   376A      7.027857  
     377A      7.150157   378A      7.182776   379A      7.494554  
     380A      7.526544   381A      7.689527   382A      7.827780  
     383A      7.982816   384A      8.012013   385A      8.440797  
     386A      8.625950   387A      8.862172   388A      9.320447  
     389A      9.484132   390A      9.669327   391A      9.789587  
     392A      9.830472   393A      9.853131   394A      9.898233  
     395A      9.930422   396A     10.019240   397A     10.273643  
     398A     10.466904   399A     11.008417   400A     11.368437  
     401A     11.521438   402A     11.582117   403A     11.911900  
     404A     12.575612   405A     13.030636   406A     13.591493  
     407A     13.888495   408A     14.084042   409A     14.492881  
     410A     15.338802   411A     44.779460   412A     60.368256  
     413A     61.176744  

    Final Occupation by Irrep:
              A 
    DOCC [    16 ]

  @DF-RHF Final Energy:  -156.16427383860224

   => Energetics <=

    Nuclear Repulsion Energy =            117.4795177297176849
    One-Electron Energy =                -441.7296324340330784
    Two-Electron Energy =                 168.0858408657131235
    Total Energy =                       -156.1642738386022415

Computation Completed


Properties will be evaluated at   0.000000,   0.000000,   0.000000 [a0]

Properties computed using the SCF density matrix

  Nuclear Dipole Moment: [e a0]
     X:  -101.8351      Y:    14.7396      Z:     0.4126

  Electronic Dipole Moment: [e a0]
     X:   101.7789      Y:   -14.9053      Z:    -0.4437

  Dipole Moment: [e a0]
     X:    -0.0562      Y:    -0.1657      Z:    -0.0311     Total:     0.1777

  Dipole Moment: [D]
     X:    -0.1428      Y:    -0.4212      Z:    -0.0790     Total:     0.4517


*** tstop() called on r282 at Sat Sep 11 00:20:02 2021
Module time:
	user time   =      16.73 seconds =       0.28 minutes
	system time =       0.41 seconds =       0.01 minutes
	total time  =         17 seconds =       0.28 minutes
Total time:
	user time   =      62.09 seconds =       1.03 minutes
	system time =       1.67 seconds =       0.03 minutes
	total time  =         64 seconds =       1.07 minutes
  Constructing Basis Sets for SAPT...

   => Loading Basis Set <=

    Name: (JUN-CC-PVTZ AUX)
    Role: RIFIT
    Keyword: DF_BASIS_SAPT
    atoms 1, 6-9     entry C          line   132 file /home/r08543048/miniconda3/share/psi4/basis/jun-cc-pvtz-ri.gbs 
    atoms 2-3        entry O          line   244 file /home/r08543048/miniconda3/share/psi4/basis/jun-cc-pvtz-ri.gbs 
    atoms 4-5, 10-17 entry H          line    30 file /home/r08543048/miniconda3/share/psi4/basis/jun-cc-pvtz-ri.gbs 


  //>>>>>>>>>>>>>>>>>>>>>>>>>>>>>>>>>>>//
  //               SAPT0               //
  //<<<<<<<<<<<<<<<<<<<<<<<<<<<<<<<<<<<//


*** tstart() called on r282
*** at Sat Sep 11 00:20:02 2021

        SAPT0  
    Ed Hohenstein
     6 June 2009

      Orbital Information
  --------------------------
    NSO        =       413
    NMO        =       413
    NRI        =       979
    NOCC A     =        12
    NOCC B     =        16
    FOCC A     =         0
    FOCC B     =         0
    NVIR A     =       401
    NVIR B     =       397

    Elst10,r            =    -0.012921377802 [Eh]
    Exch10              =     0.015437312230 [Eh]
    Exch10 (S^2)        =     0.015297000415 [Eh]

    Iter     Energy [mEh]          dE [mEh]         Residual      Time [s]
       1      -0.91992961       0.919929611       4.521752092             1
       2      -1.09952536       0.179595750       1.938184227             1
       3      -1.11863196       0.019106598       0.622104074             2
       4      -1.11434079      -0.004291170       0.282309308             2
       5      -1.11252402      -0.001816771       0.090889353             3
       6      -1.11301606       0.000492041       0.042607482             3
       7      -1.11331863       0.000302566       0.008603034             4
       8      -1.11322488      -0.000093749       0.001804016             4
       9      -1.11323194       0.000007067       0.000524408             5
      10      -1.11323327       0.000001326       0.000121113             5
      11      -1.11323278      -0.000000486       0.000036436             6
      12      -1.11323271      -0.000000071       0.000012803             6
      13      -1.11323278       0.000000064       0.000004986             7
      14      -1.11323276      -0.000000018       0.000001372             7
      15      -1.11323276       0.000000000       0.000000385             8

    CHF Iterations converged


    Iter     Energy [mEh]          dE [mEh]         Residual      Time [s]
       1      -6.80924846       6.809248456      15.253660752             0
       2      -8.50779982       1.698551360       6.632853533             1
       3      -8.81809615       0.310296335       1.755654634             1
       4      -8.79438538      -0.023710772       0.571589074             2
       5      -8.77403632      -0.020349064       0.156640195             3
       6      -8.77470849       0.000672171       0.062100186             3
       7      -8.77643571       0.001727227       0.018909337             4
       8      -8.77609939      -0.000336322       0.004980197             4
       9      -8.77604601      -0.000053377       0.001298934             5
      10      -8.77606036       0.000014348       0.000389915             5
      11      -8.77606509       0.000004731       0.000091040             6
      12      -8.77606350      -0.000001588       0.000020126             6
      13      -8.77606349      -0.000000011       0.000005189             7
      14      -8.77606357       0.000000072       0.000001285             7
      15      -8.77606356      -0.000000007       0.000000418             8

    CHF Iterations converged

    Ind20,r (A<-B)      =    -0.001113232760 [Eh]
    Ind20,r (B<-A)      =    -0.008776063559 [Eh]
    Ind20,r             =    -0.009889296319 [Eh]
    Exch-Ind20,r (A<-B) =     0.000881948466 [Eh]
    Exch-Ind20,r (B<-A) =     0.005643151532 [Eh]
    Exch-Ind20,r        =     0.006525099999 [Eh]
    Disp20              =    -0.008786699549 [Eh]
    Disp20 (SS)         =    -0.004393349775 [Eh]
    Disp20 (OS)         =    -0.004393349775 [Eh]
    Exch-Disp20         =     0.001354646719 [Eh]
    Exch-Disp20 (SS)    =     0.000883779451 [Eh]
    Exch-Disp20 (OS)    =     0.000470867268 [Eh]

    SAPT Results 
  --------------------------------------------------------------------------------------------------------
    Electrostatics                -12.92137780 [mEh]      -8.10828698 [kcal/mol]     -33.92507274 [kJ/mol]
      Elst10,r                    -12.92137780 [mEh]      -8.10828698 [kcal/mol]     -33.92507274 [kJ/mol]

    Exchange                       15.43731223 [mEh]       9.68705967 [kcal/mol]      40.53065768 [kJ/mol]
      Exch10                       15.43731223 [mEh]       9.68705967 [kcal/mol]      40.53065768 [kJ/mol]
      Exch10(S^2)                  15.29700042 [mEh]       9.59901268 [kcal/mol]      40.16226906 [kJ/mol]

    Induction                      -5.76634801 [mEh]      -3.61843801 [kcal/mol]     -15.13954462 [kJ/mol]
      Ind20,r                      -9.88929632 [mEh]      -6.20562713 [kcal/mol]     -25.96434391 [kJ/mol]
      Exch-Ind20,r                  6.52510000 [mEh]       4.09456207 [kcal/mol]      17.13164769 [kJ/mol]
      delta HF,r (2)               -2.40215169 [mEh]      -1.50737294 [kcal/mol]      -6.30684840 [kJ/mol]

    Dispersion                     -7.43205283 [mEh]      -4.66368356 [kcal/mol]     -19.51285202 [kJ/mol]
      Disp20                       -8.78669955 [mEh]      -5.51373721 [kcal/mol]     -23.06947649 [kJ/mol]
      Exch-Disp20                   1.35464672 [mEh]       0.85005365 [kcal/mol]       3.55662447 [kJ/mol]
      Disp20 (SS)                  -4.39334977 [mEh]      -2.75686861 [kcal/mol]     -11.53473824 [kJ/mol]
      Disp20 (OS)                  -4.39334977 [mEh]      -2.75686861 [kcal/mol]     -11.53473824 [kJ/mol]
      Exch-Disp20 (SS)              0.88377945 [mEh]       0.55457998 [kcal/mol]       2.32036263 [kJ/mol]
      Exch-Disp20 (OS)              0.47086727 [mEh]       0.29547367 [kcal/mol]       1.23626184 [kJ/mol]

  Total HF                         -3.25041358 [mEh]      -2.03966532 [kcal/mol]      -8.53395969 [kJ/mol]
  Total SAPT0                     -10.68246641 [mEh]      -6.70334888 [kcal/mol]     -28.04681171 [kJ/mol]

  Special recipe for scaled SAPT0 (see Manual):
    Electrostatics sSAPT0         -12.92137780 [mEh]      -8.10828698 [kcal/mol]     -33.92507274 [kJ/mol]
    Exchange sSAPT0                15.43731223 [mEh]       9.68705967 [kcal/mol]      40.53065768 [kJ/mol]
    Induction sSAPT0               -5.58514147 [mEh]      -3.50472919 [kcal/mol]     -14.66378692 [kJ/mol]
    Dispersion sSAPT0              -7.39443335 [mEh]      -4.64007698 [kcal/mol]     -19.41408210 [kJ/mol]
  Total sSAPT0                    -10.46364040 [mEh]      -6.56603348 [kcal/mol]     -27.47228408 [kJ/mol]
  --------------------------------------------------------------------------------------------------------

*** tstop() called on r282 at Sat Sep 11 00:21:05 2021
Module time:
	user time   =      51.82 seconds =       0.86 minutes
	system time =      10.38 seconds =       0.17 minutes
	total time  =         63 seconds =       1.05 minutes
Total time:
	user time   =     114.02 seconds =       1.90 minutes
	system time =      12.05 seconds =       0.20 minutes
	total time  =        127 seconds =       2.12 minutes

    Psi4 stopped on: Saturday, 11 September 2021 12:21AM
    Psi4 wall time for execution: 0:02:06.95

*** Psi4 exiting successfully. Buy a developer a beer!
