
    -----------------------------------------------------------------------
          Psi4: An Open-Source Ab Initio Electronic Structure Package
                               Psi4 1.3.2 release

                         Git: Rev {HEAD} ecbda83 


    R. M. Parrish, L. A. Burns, D. G. A. Smith, A. C. Simmonett,
    A. E. DePrince III, E. G. Hohenstein, U. Bozkaya, A. Yu. Sokolov,
    R. Di Remigio, R. M. Richard, J. F. Gonthier, A. M. James,
    H. R. McAlexander, A. Kumar, M. Saitow, X. Wang, B. P. Pritchard,
    P. Verma, H. F. Schaefer III, K. Patkowski, R. A. King, E. F. Valeev,
    F. A. Evangelista, J. M. Turney, T. D. Crawford, and C. D. Sherrill,
    J. Chem. Theory Comput. 13(7) pp 3185--3197 (2017).
    (doi: 10.1021/acs.jctc.7b00174)


                         Additional Contributions by
    P. Kraus, H. Kruse, M. H. Lechner, M. C. Schieber, R. A. Shaw,
    A. Alenaizan, R. Galvelis, Z. L. Glick, S. Lehtola, and J. P. Misiewicz

    -----------------------------------------------------------------------


    Psi4 started on: Saturday, 11 September 2021 12:45AM

    Process ID: 57393
    Host:       r282
    PSIDATADIR: /home/r08543048/miniconda3/share/psi4
    Memory:     500.0 MiB
    Threads:    1
    
  ==> Input File <==

--------------------------------------------------------------------------
# Any line starting with the # character is a comment line
#! Sample  computation

memory 22 gb

molecule Dimer {
0 1
 C   -3.056725   -0.593682    0.000035
 C   -2.105973    0.589969    0.000014
 C   -0.661984    0.169749   -0.000036
 O   -0.260726   -0.975528   -0.000176
 O    0.163358    1.239653    0.000064
 H   -2.898036   -1.216460    0.877821
 H   -4.089538   -0.250134    0.000027
 H   -2.898030   -1.216489   -0.877728
 H   -2.257245    1.230270    0.870720
 H   -2.257286    1.230258   -0.870696
 H    1.076193    0.892915    0.000019
  
  
  
  
  
    
    
 --
0 1
 C   3.065795   -0.234936   -0.668107
 H   3.774407    0.357122   -1.230787
 H   2.356799   -0.836623   -1.220741
 C   3.065694   -0.235076    0.668190
 H   2.356615   -0.836879    1.220591
 H   3.774220    0.356868    1.231099
   
   
   
   
   
   
   
   
   




units angstrom

no_reorient
symmetry c1
}

set globals{
  basis jun-cc-pvtz
}

energy('sapt0')


--------------------------------------------------------------------------

  Memory set to  20.489 GiB by Python driver.

  //>>>>>>>>>>>>>>>>>>>>>>>>>>>>>>>>>>>//
  //              Dimer HF             //
  //<<<<<<<<<<<<<<<<<<<<<<<<<<<<<<<<<<<//


*** tstart() called on r282
*** at Sat Sep 11 00:45:41 2021

   => Loading Basis Set <=

    Name: JUN-CC-PVTZ
    Role: ORBITAL
    Keyword: BASIS
    atoms 1-3, 12, 15        entry C          line   217 file /home/r08543048/miniconda3/share/psi4/basis/jun-cc-pvtz.gbs 
    atoms 4-5                entry O          line   305 file /home/r08543048/miniconda3/share/psi4/basis/jun-cc-pvtz.gbs 
    atoms 6-11, 13-14, 16-17 entry H          line    36 file /home/r08543048/miniconda3/share/psi4/basis/jun-cc-pvtz.gbs 


         ---------------------------------------------------------
                                   SCF
               by Justin Turney, Rob Parrish, Andy Simmonett
                          and Daniel G. A. Smith
                              RHF Reference
                        1 Threads,  20980 MiB Core
         ---------------------------------------------------------

  ==> Geometry <==

    Molecular point group: c1
    Full point group: C1

    Geometry (in Angstrom), charge = 0, multiplicity = 1:

       Center              X                  Y                   Z               Mass       
    ------------   -----------------  -----------------  -----------------  -----------------
         C           -3.067052232062    -0.596479448540     0.000038055679    12.000000000000
         C           -2.116300232062     0.587171551460     0.000017055679    12.000000000000
         C           -0.672311232062     0.166951551460    -0.000032944321    12.000000000000
         O           -0.271053232062    -0.978325448540    -0.000172944321    15.994914619570
         O            0.153030767938     1.236855551460     0.000067055679    15.994914619570
         H           -2.908363232062    -1.219257448540     0.877824055679     1.007825032230
         H           -4.099865232062    -0.252931448540     0.000030055679     1.007825032230
         H           -2.908357232062    -1.219286448540    -0.877724944321     1.007825032230
         H           -2.267572232062     1.227472551460     0.870723055679     1.007825032230
         H           -2.267613232062     1.227460551460    -0.870692944321     1.007825032230
         H            1.065865767938     0.890117551460     0.000022055679     1.007825032230
         C            3.055467767938    -0.237733448540    -0.668103944321    12.000000000000
         H            3.764079767938     0.354324551460    -1.230783944321     1.007825032230
         H            2.346471767938    -0.839420448540    -1.220737944321     1.007825032230
         C            3.055366767938    -0.237873448540     0.668193055679    12.000000000000
         H            2.346287767938    -0.839676448540     1.220594055679     1.007825032230
         H            3.763892767938     0.354070551460     1.231102055679     1.007825032230

  Running in c1 symmetry.

  Rotational constants: A =      0.21533  B =      0.03354  C =      0.03115 [cm^-1]
  Rotational constants: A =   6455.39181  B =   1005.38568  C =    933.71873 [MHz]
  Nuclear repulsion =  292.900151171859420

  Charge       = 0
  Multiplicity = 1
  Electrons    = 56
  Nalpha       = 28
  Nbeta        = 28

  ==> Algorithm <==

  SCF Algorithm Type is DF.
  DIIS enabled.
  MOM disabled.
  Fractional occupation disabled.
  Guess Type is SAD.
  Energy threshold   = 1.00e-08
  Density threshold  = 1.00e-08
  Integral threshold = 0.00e+00

  ==> Primary Basis <==

  Basis Set: JUN-CC-PVTZ
    Blend: JUN-CC-PVTZ
    Number of shells: 151
    Number of basis function: 413
    Number of Cartesian functions: 465
    Spherical Harmonics?: true
    Max angular momentum: 3

   => Loading Basis Set <=

    Name: (JUN-CC-PVTZ AUX)
    Role: JKFIT
    Keyword: DF_BASIS_SCF
    atoms 1-3, 12, 15        entry C          line   152 file /home/r08543048/miniconda3/share/psi4/basis/jun-cc-pvtz-jkfit.gbs 
    atoms 4-5                entry O          line   272 file /home/r08543048/miniconda3/share/psi4/basis/jun-cc-pvtz-jkfit.gbs 
    atoms 6-11, 13-14, 16-17 entry H          line    70 file /home/r08543048/miniconda3/share/psi4/basis/jun-cc-pvtz-jkfit.gbs 

  ==> Pre-Iterations <==

   -------------------------------------------------------
    Irrep   Nso     Nmo     Nalpha   Nbeta   Ndocc  Nsocc
   -------------------------------------------------------
     A        413     413       0       0       0       0
   -------------------------------------------------------
    Total     413     413      28      28      28       0
   -------------------------------------------------------

  ==> Integral Setup <==

  ==> DiskDFJK: Density-Fitted J/K Matrices <==

    J tasked:                  Yes
    K tasked:                  Yes
    wK tasked:                  No
    OpenMP threads:              1
    Integrals threads:           1
    Memory [MiB]:            15735
    Algorithm:                Core
    Integral Cache:           SAVE
    Schwarz Cutoff:          1E-12
    Fitting Condition:       1E-10

   => Auxiliary Basis Set <=

  Basis Set: (JUN-CC-PVTZ AUX)
    Blend: JUN-CC-PVTZ-JKFIT
    Number of shells: 303
    Number of basis function: 965
    Number of Cartesian functions: 1162
    Spherical Harmonics?: true
    Max angular momentum: 4

  Minimum eigenvalue in the overlap matrix is 4.0739569361E-05.
  Using Symmetric Orthogonalization.

  SCF Guess: Superposition of Atomic Densities via on-the-fly atomic UHF.

  ==> Iterations <==

                           Total Energy        Delta E     RMS |[F,P]|

   @DF-RHF iter SAD:  -343.47535659704118   -3.43475e+02   0.00000e+00 
   @DF-RHF iter   1:  -344.75641352625911   -1.28106e+00   1.76225e-03 DIIS
   @DF-RHF iter   2:  -344.95910772457614   -2.02694e-01   9.54952e-04 DIIS
   @DF-RHF iter   3:  -345.01455195567212   -5.54442e-02   1.86391e-04 DIIS
   @DF-RHF iter   4:  -345.01796568807771   -3.41373e-03   8.56892e-05 DIIS
   @DF-RHF iter   5:  -345.01867053458761   -7.04847e-04   1.58600e-05 DIIS
   @DF-RHF iter   6:  -345.01871420789240   -4.36733e-05   7.99051e-06 DIIS
   @DF-RHF iter   7:  -345.01872355914099   -9.35125e-06   2.70343e-06 DIIS
   @DF-RHF iter   8:  -345.01872538361067   -1.82447e-06   1.00397e-06 DIIS
   @DF-RHF iter   9:  -345.01872563738021   -2.53770e-07   2.72039e-07 DIIS
   @DF-RHF iter  10:  -345.01872565469182   -1.73116e-08   7.24463e-08 DIIS
   @DF-RHF iter  11:  -345.01872565571307   -1.02125e-09   1.75897e-08 DIIS
   @DF-RHF iter  12:  -345.01872565577241   -5.93445e-11   3.97871e-09 DIIS
  Energy and wave function converged.


  ==> Post-Iterations <==

    Orbital Energies [Eh]
    ---------------------

    Doubly Occupied:                                                      

       1A    -20.600693     2A    -20.544054     3A    -11.380801  
       4A    -11.243934     5A    -11.239284     6A    -11.237599  
       7A    -11.219277     8A     -1.454492     9A     -1.352289  
      10A     -1.064348    11A     -1.044055    12A     -0.911168  
      13A     -0.800447    14A     -0.787884    15A     -0.699908  
      16A     -0.684057    17A     -0.655980    18A     -0.652423  
      19A     -0.593834    20A     -0.589400    21A     -0.587164  
      22A     -0.531520    23A     -0.523360    24A     -0.515852  
      25A     -0.501711    26A     -0.476403    27A     -0.448971  
      28A     -0.387670  

    Virtual:                                                              

      29A      0.050741    30A      0.054927    31A      0.058411  
      32A      0.062559    33A      0.075845    34A      0.081539  
      35A      0.090519    36A      0.091291    37A      0.102591  
      38A      0.109657    39A      0.112999    40A      0.114060  
      41A      0.121916    42A      0.126891    43A      0.143255  
      44A      0.150911    45A      0.173768    46A      0.177456  
      47A      0.182576    48A      0.192053    49A      0.194985  
      50A      0.211697    51A      0.219165    52A      0.220344  
      53A      0.235083    54A      0.244846    55A      0.262339  
      56A      0.262958    57A      0.280244    58A      0.288380  
      59A      0.289049    60A      0.293876    61A      0.295066  
      62A      0.301487    63A      0.312778    64A      0.317884  
      65A      0.319530    66A      0.329834    67A      0.331160  
      68A      0.340882    69A      0.347387    70A      0.351241  
      71A      0.353476    72A      0.367646    73A      0.381938  
      74A      0.390029    75A      0.392569    76A      0.401732  
      77A      0.412105    78A      0.424699    79A      0.430704  
      80A      0.432933    81A      0.443803    82A      0.449407  
      83A      0.459967    84A      0.472075    85A      0.492703  
      86A      0.496542    87A      0.496912    88A      0.506815  
      89A      0.517599    90A      0.538379    91A      0.546400  
      92A      0.547988    93A      0.552028    94A      0.573493  
      95A      0.595951    96A      0.601437    97A      0.625246  
      98A      0.634407    99A      0.647110   100A      0.667424  
     101A      0.688076   102A      0.700350   103A      0.706783  
     104A      0.717198   105A      0.722183   106A      0.740043  
     107A      0.745402   108A      0.754189   109A      0.757822  
     110A      0.767804   111A      0.775040   112A      0.776873  
     113A      0.783284   114A      0.794515   115A      0.797379  
     116A      0.814741   117A      0.819561   118A      0.833498  
     119A      0.858777   120A      0.860784   121A      0.865693  
     122A      0.882650   123A      0.889504   124A      0.912994  
     125A      0.920835   126A      0.923721   127A      0.927082  
     128A      0.937173   129A      0.945358   130A      0.959309  
     131A      0.998057   132A      0.999495   133A      1.017064  
     134A      1.038776   135A      1.050503   136A      1.051596  
     137A      1.053283   138A      1.087984   139A      1.099549  
     140A      1.107233   141A      1.112944   142A      1.119640  
     143A      1.134516   144A      1.138741   145A      1.178958  
     146A      1.194588   147A      1.212026   148A      1.240431  
     149A      1.247153   150A      1.256136   151A      1.279188  
     152A      1.279868   153A      1.287879   154A      1.311090  
     155A      1.341272   156A      1.351906   157A      1.357582  
     158A      1.360230   159A      1.383050   160A      1.400271  
     161A      1.414830   162A      1.429262   163A      1.434635  
     164A      1.444440   165A      1.456731   166A      1.466865  
     167A      1.486782   168A      1.489372   169A      1.496177  
     170A      1.508821   171A      1.514174   172A      1.529637  
     173A      1.568502   174A      1.574541   175A      1.584177  
     176A      1.606905   177A      1.613653   178A      1.621899  
     179A      1.650368   180A      1.660015   181A      1.660127  
     182A      1.683422   183A      1.710512   184A      1.711273  
     185A      1.762401   186A      1.768589   187A      1.784985  
     188A      1.802912   189A      1.822742   190A      1.899446  
     191A      1.909439   192A      1.909833   193A      1.912753  
     194A      1.912937   195A      1.962002   196A      1.987216  
     197A      1.995508   198A      1.998089   199A      2.098921  
     200A      2.209033   201A      2.243912   202A      2.251281  
     203A      2.340074   204A      2.372837   205A      2.402774  
     206A      2.446786   207A      2.455115   208A      2.576245  
     209A      2.619477   210A      2.645407   211A      2.651371  
     212A      2.720836   213A      2.731941   214A      2.763603  
     215A      2.771729   216A      2.785623   217A      2.796973  
     218A      2.839352   219A      2.856714   220A      2.867963  
     221A      2.890324   222A      2.917567   223A      2.944083  
     224A      2.963033   225A      2.985928   226A      2.986973  
     227A      3.011967   228A      3.026963   229A      3.028450  
     230A      3.058934   231A      3.082473   232A      3.110760  
     233A      3.114423   234A      3.118134   235A      3.132652  
     236A      3.136541   237A      3.156058   238A      3.178615  
     239A      3.207795   240A      3.230247   241A      3.231277  
     242A      3.243792   243A      3.245623   244A      3.295028  
     245A      3.305716   246A      3.319991   247A      3.338489  
     248A      3.342839   249A      3.368988   250A      3.375955  
     251A      3.399655   252A      3.419206   253A      3.448935  
     254A      3.453213   255A      3.453222   256A      3.461584  
     257A      3.466966   258A      3.472718   259A      3.487540  
     260A      3.492894   261A      3.505650   262A      3.514468  
     263A      3.527554   264A      3.534733   265A      3.541062  
     266A      3.580928   267A      3.581050   268A      3.601875  
     269A      3.626036   270A      3.633879   271A      3.658567  
     272A      3.667516   273A      3.671162   274A      3.681472  
     275A      3.734483   276A      3.737596   277A      3.761188  
     278A      3.766829   279A      3.795418   280A      3.797857  
     281A      3.837398   282A      3.862697   283A      3.876072  
     284A      3.885362   285A      3.894161   286A      3.913815  
     287A      3.951818   288A      3.990511   289A      4.011894  
     290A      4.022139   291A      4.028547   292A      4.031087  
     293A      4.035847   294A      4.052300   295A      4.053877  
     296A      4.069933   297A      4.109553   298A      4.211794  
     299A      4.215395   300A      4.222651   301A      4.237621  
     302A      4.240435   303A      4.265062   304A      4.282538  
     305A      4.288794   306A      4.306232   307A      4.318434  
     308A      4.324259   309A      4.344594   310A      4.354003  
     311A      4.372346   312A      4.375097   313A      4.392218  
     314A      4.417486   315A      4.431443   316A      4.432727  
     317A      4.455833   318A      4.477678   319A      4.480645  
     320A      4.499762   321A      4.508426   322A      4.570356  
     323A      4.579559   324A      4.614828   325A      4.637497  
     326A      4.654066   327A      4.660897   328A      4.689181  
     329A      4.690897   330A      4.715695   331A      4.732136  
     332A      4.758872   333A      4.802763   334A      4.805223  
     335A      4.853893   336A      4.867113   337A      4.899453  
     338A      4.921695   339A      4.936221   340A      4.945289  
     341A      5.000427   342A      5.014460   343A      5.082445  
     344A      5.095046   345A      5.137037   346A      5.152855  
     347A      5.172997   348A      5.243014   349A      5.251822  
     350A      5.274499   351A      5.274686   352A      5.313581  
     353A      5.318629   354A      5.345371   355A      5.383497  
     356A      5.414193   357A      5.417970   358A      5.436558  
     359A      5.458953   360A      5.485938   361A      5.509229  
     362A      5.562458   363A      5.618819   364A      5.645814  
     365A      5.659570   366A      5.684034   367A      5.699487  
     368A      5.736180   369A      5.739553   370A      5.802308  
     371A      5.809218   372A      5.825097   373A      5.861814  
     374A      5.899778   375A      5.907348   376A      5.964264  
     377A      6.029351   378A      6.051225   379A      6.065807  
     380A      6.142959   381A      6.288646   382A      6.303347  
     383A      6.427640   384A      6.466567   385A      6.487364  
     386A      6.498920   387A      6.552740   388A      6.557585  
     389A      6.733641   390A      6.795594   391A      6.843336  
     392A      6.987548   393A      7.020074   394A      7.090684  
     395A      7.223447   396A      7.290286   397A      7.290542  
     398A      7.369368   399A      7.392316   400A      7.403189  
     401A      7.454668   402A      7.641558   403A      7.759346  
     404A      7.859371   405A      7.985112   406A      8.154430  
     407A     12.004282   408A     12.825886   409A     13.923552  
     410A     14.127086   411A     14.495093   412A     14.701493  
     413A     15.455001  

    Final Occupation by Irrep:
              A 
    DOCC [    28 ]

  @DF-RHF Final Energy:  -345.01872565577241

   => Energetics <=

    Nuclear Repulsion Energy =            292.9001511718594202
    One-Electron Energy =               -1050.3805993633111484
    Two-Electron Energy =                 412.4617225356793142
    Total Energy =                       -345.0187256557724140

Computation Completed


Properties will be evaluated at   0.000000,   0.000000,   0.000000 [a0]

Properties computed using the SCF density matrix

  Nuclear Dipole Moment: [e a0]
     X:    -1.0929      Y:    -0.2961      Z:     0.0003

  Electronic Dipole Moment: [e a0]
     X:     0.9722      Y:     0.8656      Z:    -0.0003

  Dipole Moment: [e a0]
     X:    -0.1206      Y:     0.5696      Z:     0.0001     Total:     0.5822

  Dipole Moment: [D]
     X:    -0.3067      Y:     1.4478      Z:     0.0002     Total:     1.4799


*** tstop() called on r282 at Sat Sep 11 00:46:11 2021
Module time:
	user time   =      28.96 seconds =       0.48 minutes
	system time =       0.88 seconds =       0.01 minutes
	total time  =         30 seconds =       0.50 minutes
Total time:
	user time   =      28.96 seconds =       0.48 minutes
	system time =       0.88 seconds =       0.01 minutes
	total time  =         30 seconds =       0.50 minutes

  //>>>>>>>>>>>>>>>>>>>>>>>>>>>>>>>>>>>//
  //            Monomer A HF           //
  //<<<<<<<<<<<<<<<<<<<<<<<<<<<<<<<<<<<//


*** tstart() called on r282
*** at Sat Sep 11 00:46:11 2021

   => Loading Basis Set <=

    Name: JUN-CC-PVTZ
    Role: ORBITAL
    Keyword: BASIS
    atoms 1-3, 12, 15        entry C          line   217 file /home/r08543048/miniconda3/share/psi4/basis/jun-cc-pvtz.gbs 
    atoms 4-5                entry O          line   305 file /home/r08543048/miniconda3/share/psi4/basis/jun-cc-pvtz.gbs 
    atoms 6-11, 13-14, 16-17 entry H          line    36 file /home/r08543048/miniconda3/share/psi4/basis/jun-cc-pvtz.gbs 


         ---------------------------------------------------------
                                   SCF
               by Justin Turney, Rob Parrish, Andy Simmonett
                          and Daniel G. A. Smith
                              RHF Reference
                        1 Threads,  20980 MiB Core
         ---------------------------------------------------------

  ==> Geometry <==

    Molecular point group: c1
    Full point group: C1

    Geometry (in Angstrom), charge = 0, multiplicity = 1:

       Center              X                  Y                   Z               Mass       
    ------------   -----------------  -----------------  -----------------  -----------------
         C           -3.067052232062    -0.596479448540     0.000038055679    12.000000000000
         C           -2.116300232062     0.587171551460     0.000017055679    12.000000000000
         C           -0.672311232062     0.166951551460    -0.000032944321    12.000000000000
         O           -0.271053232062    -0.978325448540    -0.000172944321    15.994914619570
         O            0.153030767938     1.236855551460     0.000067055679    15.994914619570
         H           -2.908363232062    -1.219257448540     0.877824055679     1.007825032230
         H           -4.099865232062    -0.252931448540     0.000030055679     1.007825032230
         H           -2.908357232062    -1.219286448540    -0.877724944321     1.007825032230
         H           -2.267572232062     1.227472551460     0.870723055679     1.007825032230
         H           -2.267613232062     1.227460551460    -0.870692944321     1.007825032230
         H            1.065865767938     0.890117551460     0.000022055679     1.007825032230
      Gh(C)           3.055467767938    -0.237733448540    -0.668103944321    12.000000000000
      Gh(H)           3.764079767938     0.354324551460    -1.230783944321     1.007825032230
      Gh(H)           2.346471767938    -0.839420448540    -1.220737944321     1.007825032230
      Gh(C)           3.055366767938    -0.237873448540     0.668193055679    12.000000000000
      Gh(H)           2.346287767938    -0.839676448540     1.220594055679     1.007825032230
      Gh(H)           3.763892767938     0.354070551460     1.231102055679     1.007825032230

  Running in c1 symmetry.

  Rotational constants: A =      0.21533  B =      0.03354  C =      0.03115 [cm^-1]
  Rotational constants: A =   6455.39181  B =   1005.38568  C =    933.71873 [MHz]
  Nuclear repulsion =  178.583133653562783

  Charge       = 0
  Multiplicity = 1
  Electrons    = 40
  Nalpha       = 20
  Nbeta        = 20

  ==> Algorithm <==

  SCF Algorithm Type is DF.
  DIIS enabled.
  MOM disabled.
  Fractional occupation disabled.
  Guess Type is SAD.
  Energy threshold   = 1.00e-08
  Density threshold  = 1.00e-08
  Integral threshold = 0.00e+00

  ==> Primary Basis <==

  Basis Set: JUN-CC-PVTZ
    Blend: JUN-CC-PVTZ
    Number of shells: 151
    Number of basis function: 413
    Number of Cartesian functions: 465
    Spherical Harmonics?: true
    Max angular momentum: 3

   => Loading Basis Set <=

    Name: (JUN-CC-PVTZ AUX)
    Role: JKFIT
    Keyword: DF_BASIS_SCF
    atoms 1-3, 12, 15        entry C          line   152 file /home/r08543048/miniconda3/share/psi4/basis/jun-cc-pvtz-jkfit.gbs 
    atoms 4-5                entry O          line   272 file /home/r08543048/miniconda3/share/psi4/basis/jun-cc-pvtz-jkfit.gbs 
    atoms 6-11, 13-14, 16-17 entry H          line    70 file /home/r08543048/miniconda3/share/psi4/basis/jun-cc-pvtz-jkfit.gbs 

  ==> Pre-Iterations <==

   -------------------------------------------------------
    Irrep   Nso     Nmo     Nalpha   Nbeta   Ndocc  Nsocc
   -------------------------------------------------------
     A        413     413       0       0       0       0
   -------------------------------------------------------
    Total     413     413      20      20      20       0
   -------------------------------------------------------

  ==> Integral Setup <==

  ==> DiskDFJK: Density-Fitted J/K Matrices <==

    J tasked:                  Yes
    K tasked:                  Yes
    wK tasked:                  No
    OpenMP threads:              1
    Integrals threads:           1
    Memory [MiB]:            15735
    Algorithm:                Core
    Integral Cache:           LOAD
    Schwarz Cutoff:          1E-12
    Fitting Condition:       1E-10

   => Auxiliary Basis Set <=

  Basis Set: (JUN-CC-PVTZ AUX)
    Blend: JUN-CC-PVTZ-JKFIT
    Number of shells: 303
    Number of basis function: 965
    Number of Cartesian functions: 1162
    Spherical Harmonics?: true
    Max angular momentum: 4

  Minimum eigenvalue in the overlap matrix is 4.0739569361E-05.
  Using Symmetric Orthogonalization.

  SCF Guess: Superposition of Atomic Densities via on-the-fly atomic UHF.

  ==> Iterations <==

                           Total Energy        Delta E     RMS |[F,P]|

   @DF-RHF iter SAD:  -266.06046194925324   -2.66060e+02   0.00000e+00 
   @DF-RHF iter   1:  -266.75248465471748   -6.92023e-01   1.57178e-03 DIIS
   @DF-RHF iter   2:  -266.89967851803738   -1.47194e-01   9.23395e-04 DIIS
   @DF-RHF iter   3:  -266.94896141323602   -4.92829e-02   1.62897e-04 DIIS
   @DF-RHF iter   4:  -266.95172717838000   -2.76577e-03   7.76212e-05 DIIS
   @DF-RHF iter   5:  -266.95233575164508   -6.08573e-04   1.56043e-05 DIIS
   @DF-RHF iter   6:  -266.95238040082387   -4.46492e-05   7.68269e-06 DIIS
   @DF-RHF iter   7:  -266.95238955702422   -9.15620e-06   2.76143e-06 DIIS
   @DF-RHF iter   8:  -266.95239146496181   -1.90794e-06   9.79010e-07 DIIS
   @DF-RHF iter   9:  -266.95239172043881   -2.55477e-07   2.28366e-07 DIIS
   @DF-RHF iter  10:  -266.95239173297654   -1.25377e-08   6.87205e-08 DIIS
   @DF-RHF iter  11:  -266.95239173373398   -7.57439e-10   1.70332e-08 DIIS
   @DF-RHF iter  12:  -266.95239173378747   -5.34897e-11   3.92054e-09 DIIS
  Energy and wave function converged.


  ==> Post-Iterations <==

    Orbital Energies [Eh]
    ---------------------

    Doubly Occupied:                                                      

       1A    -20.615957     2A    -20.550074     3A    -11.386792  
       4A    -11.248582     5A    -11.222083     6A     -1.464017  
       7A     -1.359597     8A     -1.068367     9A     -0.916303  
      10A     -0.795718    11A     -0.705178    12A     -0.689742  
      13A     -0.662079    14A     -0.596954    15A     -0.594074  
      16A     -0.535440    17A     -0.526846    18A     -0.505713  
      19A     -0.483161    20A     -0.453110  

    Virtual:                                                              

      21A      0.037059    22A      0.049244    23A      0.052371  
      24A      0.059620    25A      0.075490    26A      0.077721  
      27A      0.078851    28A      0.100721    29A      0.101185  
      30A      0.108118    31A      0.110738    32A      0.113597  
      33A      0.117261    34A      0.120788    35A      0.145801  
      36A      0.148181    37A      0.157859    38A      0.159096  
      39A      0.179915    40A      0.183306    41A      0.203778  
      42A      0.213233    43A      0.219255    44A      0.223456  
      45A      0.236913    46A      0.244504    47A      0.250815  
      48A      0.259741    49A      0.279028    50A      0.285590  
      51A      0.292069    52A      0.292185    53A      0.296300  
      54A      0.309898    55A      0.310915    56A      0.323009  
      57A      0.324611    58A      0.325904    59A      0.332613  
      60A      0.334424    61A      0.351436    62A      0.355001  
      63A      0.363196    64A      0.372863    65A      0.373790  
      66A      0.382234    67A      0.401900    68A      0.406688  
      69A      0.415612    70A      0.422467    71A      0.431940  
      72A      0.437283    73A      0.446008    74A      0.452062  
      75A      0.458166    76A      0.482405    77A      0.493717  
      78A      0.502360    79A      0.510934    80A      0.515009  
      81A      0.535789    82A      0.536211    83A      0.545963  
      84A      0.548529    85A      0.552247    86A      0.574542  
      87A      0.589070    88A      0.600207    89A      0.615026  
      90A      0.630386    91A      0.647568    92A      0.650235  
      93A      0.650971    94A      0.663186    95A      0.672176  
      96A      0.679448    97A      0.689695    98A      0.712828  
      99A      0.717835   100A      0.727335   101A      0.741227  
     102A      0.766902   103A      0.770272   104A      0.773758  
     105A      0.790714   106A      0.807963   107A      0.813105  
     108A      0.828764   109A      0.843225   110A      0.867695  
     111A      0.876204   112A      0.885198   113A      0.907964  
     114A      0.917418   115A      0.919650   116A      0.922716  
     117A      0.935433   118A      0.976218   119A      0.983483  
     120A      1.010238   121A      1.026720   122A      1.029418  
     123A      1.051194   124A      1.057783   125A      1.082099  
     126A      1.088419   127A      1.098703   128A      1.118292  
     129A      1.125639   130A      1.138715   131A      1.138803  
     132A      1.158474   133A      1.185624   134A      1.191415  
     135A      1.214741   136A      1.220644   137A      1.233606  
     138A      1.254237   139A      1.263575   140A      1.284344  
     141A      1.296196   142A      1.302154   143A      1.312254  
     144A      1.331725   145A      1.356966   146A      1.363083  
     147A      1.364768   148A      1.366789   149A      1.391039  
     150A      1.396074   151A      1.407150   152A      1.419449  
     153A      1.424092   154A      1.432644   155A      1.437235  
     156A      1.445830   157A      1.462296   158A      1.465028  
     159A      1.481821   160A      1.492824   161A      1.501568  
     162A      1.502001   163A      1.516496   164A      1.535877  
     165A      1.555205   166A      1.565916   167A      1.587373  
     168A      1.604985   169A      1.608710   170A      1.625664  
     171A      1.635731   172A      1.650207   173A      1.664905  
     174A      1.679487   175A      1.691043   176A      1.762923  
     177A      1.777247   178A      1.790341   179A      1.804500  
     180A      1.818314   181A      1.821087   182A      1.823447  
     183A      1.846861   184A      1.898981   185A      1.907190  
     186A      1.912363   187A      1.925393   188A      1.947565  
     189A      1.968872   190A      2.011532   191A      2.088460  
     192A      2.141954   193A      2.229784   194A      2.240310  
     195A      2.251468   196A      2.287792   197A      2.303047  
     198A      2.373380   199A      2.373601   200A      2.387538  
     201A      2.445751   202A      2.471283   203A      2.475262  
     204A      2.583330   205A      2.610838   206A      2.636468  
     207A      2.643251   208A      2.737122   209A      2.778166  
     210A      2.803591   211A      2.826112   212A      2.844264  
     213A      2.890686   214A      2.913834   215A      2.956999  
     216A      3.005876   217A      3.022666   218A      3.022787  
     219A      3.067039   220A      3.112425   221A      3.117745  
     222A      3.129075   223A      3.175538   224A      3.215791  
     225A      3.238643   226A      3.301286   227A      3.302016  
     228A      3.322029   229A      3.337158   230A      3.368329  
     231A      3.369639   232A      3.390738   233A      3.444977  
     234A      3.458223   235A      3.458802   236A      3.469133  
     237A      3.488219   238A      3.497390   239A      3.503515  
     240A      3.514631   241A      3.520998   242A      3.557717  
     243A      3.561559   244A      3.581599   245A      3.591542  
     246A      3.619396   247A      3.639580   248A      3.653682  
     249A      3.662685   250A      3.672066   251A      3.675953  
     252A      3.686764   253A      3.688723   254A      3.719496  
     255A      3.748780   256A      3.749687   257A      3.763266  
     258A      3.787637   259A      3.789324   260A      3.827792  
     261A      3.858193   262A      3.876247   263A      3.879366  
     264A      3.910082   265A      3.910104   266A      3.921999  
     267A      3.942837   268A      3.962266   269A      3.990396  
     270A      4.013580   271A      4.023137   272A      4.028218  
     273A      4.064569   274A      4.093006   275A      4.096707  
     276A      4.109739   277A      4.163191   278A      4.184303  
     279A      4.204314   280A      4.212183   281A      4.222051  
     282A      4.234058   283A      4.239105   284A      4.246423  
     285A      4.297541   286A      4.299833   287A      4.301704  
     288A      4.317686   289A      4.347028   290A      4.362955  
     291A      4.386065   292A      4.403702   293A      4.415274  
     294A      4.420726   295A      4.437234   296A      4.438871  
     297A      4.450682   298A      4.477035   299A      4.480753  
     300A      4.482896   301A      4.498349   302A      4.505373  
     303A      4.546053   304A      4.568368   305A      4.574756  
     306A      4.601511   307A      4.605234   308A      4.636163  
     309A      4.656877   310A      4.669886   311A      4.697335  
     312A      4.701236   313A      4.711419   314A      4.728882  
     315A      4.759494   316A      4.766261   317A      4.775106  
     318A      4.802829   319A      4.809550   320A      4.810331  
     321A      4.838453   322A      4.870873   323A      4.899307  
     324A      4.931803   325A      4.945395   326A      4.953831  
     327A      4.978708   328A      5.016108   329A      5.046567  
     330A      5.083623   331A      5.126668   332A      5.133325  
     333A      5.158939   334A      5.219062   335A      5.245883  
     336A      5.271960   337A      5.279821   338A      5.304953  
     339A      5.308740   340A      5.315922   341A      5.345293  
     342A      5.390174   343A      5.404024   344A      5.455348  
     345A      5.456989   346A      5.476099   347A      5.485082  
     348A      5.553390   349A      5.609158   350A      5.626607  
     351A      5.642495   352A      5.663423   353A      5.664702  
     354A      5.688510   355A      5.733438   356A      5.737103  
     357A      5.802091   358A      5.820953   359A      5.856925  
     360A      5.888664   361A      5.897786   362A      5.901963  
     363A      5.956285   364A      6.009313   365A      6.021484  
     366A      6.056496   367A      6.131065   368A      6.139871  
     369A      6.158005   370A      6.183483   371A      6.296301  
     372A      6.328051   373A      6.418589   374A      6.452181  
     375A      6.470341   376A      6.485597   377A      6.496469  
     378A      6.550119   379A      6.725991   380A      6.790248  
     381A      6.803517   382A      6.979023   383A      7.006158  
     384A      7.082323   385A      7.185785   386A      7.243806  
     387A      7.272143   388A      7.278686   389A      7.288566  
     390A      7.358228   391A      7.382451   392A      7.391751  
     393A      7.448942   394A      7.472295   395A      7.542381  
     396A      7.636124   397A      7.755071   398A      7.847348  
     399A      7.898834   400A      7.976731   401A      8.027701  
     402A      8.143623   403A      8.205282   404A      8.669613  
     405A      9.577270   406A     10.262045   407A     12.007471  
     408A     13.902076   409A     14.121579   410A     14.487624  
     411A     14.697049   412A     41.803036   413A     47.310330  

    Final Occupation by Irrep:
              A 
    DOCC [    20 ]

  @DF-RHF Final Energy:  -266.95239173378747

   => Energetics <=

    Nuclear Repulsion Energy =            178.5831336535627827
    One-Electron Energy =                -718.3114820130169846
    Two-Electron Energy =                 272.7759566256667654
    Total Energy =                       -266.9523917337874650

Computation Completed


Properties will be evaluated at   0.000000,   0.000000,   0.000000 [a0]

Properties computed using the SCF density matrix

  Nuclear Dipole Moment: [e a0]
     X:   -93.4735      Y:     6.9309      Z:    -0.0010

  Electronic Dipole Moment: [e a0]
     X:    93.1797      Y:    -6.2432      Z:     0.0011

  Dipole Moment: [e a0]
     X:    -0.2938      Y:     0.6877      Z:     0.0001     Total:     0.7478

  Dipole Moment: [D]
     X:    -0.7468      Y:     1.7480      Z:     0.0002     Total:     1.9008


*** tstop() called on r282 at Sat Sep 11 00:46:29 2021
Module time:
	user time   =      16.98 seconds =       0.28 minutes
	system time =       0.46 seconds =       0.01 minutes
	total time  =         18 seconds =       0.30 minutes
Total time:
	user time   =      45.95 seconds =       0.77 minutes
	system time =       1.34 seconds =       0.02 minutes
	total time  =         48 seconds =       0.80 minutes

  //>>>>>>>>>>>>>>>>>>>>>>>>>>>>>>>>>>>//
  //            Monomer B HF           //
  //<<<<<<<<<<<<<<<<<<<<<<<<<<<<<<<<<<<//


*** tstart() called on r282
*** at Sat Sep 11 00:46:29 2021

   => Loading Basis Set <=

    Name: JUN-CC-PVTZ
    Role: ORBITAL
    Keyword: BASIS
    atoms 1-3, 12, 15        entry C          line   217 file /home/r08543048/miniconda3/share/psi4/basis/jun-cc-pvtz.gbs 
    atoms 4-5                entry O          line   305 file /home/r08543048/miniconda3/share/psi4/basis/jun-cc-pvtz.gbs 
    atoms 6-11, 13-14, 16-17 entry H          line    36 file /home/r08543048/miniconda3/share/psi4/basis/jun-cc-pvtz.gbs 


         ---------------------------------------------------------
                                   SCF
               by Justin Turney, Rob Parrish, Andy Simmonett
                          and Daniel G. A. Smith
                              RHF Reference
                        1 Threads,  20980 MiB Core
         ---------------------------------------------------------

  ==> Geometry <==

    Molecular point group: c1
    Full point group: C1

    Geometry (in Angstrom), charge = 0, multiplicity = 1:

       Center              X                  Y                   Z               Mass       
    ------------   -----------------  -----------------  -----------------  -----------------
      Gh(C)          -3.067052232062    -0.596479448540     0.000038055679    12.000000000000
      Gh(C)          -2.116300232062     0.587171551460     0.000017055679    12.000000000000
      Gh(C)          -0.672311232062     0.166951551460    -0.000032944321    12.000000000000
      Gh(O)          -0.271053232062    -0.978325448540    -0.000172944321    15.994914619570
      Gh(O)           0.153030767938     1.236855551460     0.000067055679    15.994914619570
      Gh(H)          -2.908363232062    -1.219257448540     0.877824055679     1.007825032230
      Gh(H)          -4.099865232062    -0.252931448540     0.000030055679     1.007825032230
      Gh(H)          -2.908357232062    -1.219286448540    -0.877724944321     1.007825032230
      Gh(H)          -2.267572232062     1.227472551460     0.870723055679     1.007825032230
      Gh(H)          -2.267613232062     1.227460551460    -0.870692944321     1.007825032230
      Gh(H)           1.065865767938     0.890117551460     0.000022055679     1.007825032230
         C            3.055467767938    -0.237733448540    -0.668103944321    12.000000000000
         H            3.764079767938     0.354324551460    -1.230783944321     1.007825032230
         H            2.346471767938    -0.839420448540    -1.220737944321     1.007825032230
         C            3.055366767938    -0.237873448540     0.668193055679    12.000000000000
         H            2.346287767938    -0.839676448540     1.220594055679     1.007825032230
         H            3.763892767938     0.354070551460     1.231102055679     1.007825032230

  Running in c1 symmetry.

  Rotational constants: A =      0.21533  B =      0.03354  C =      0.03115 [cm^-1]
  Rotational constants: A =   6455.39181  B =   1005.38568  C =    933.71873 [MHz]
  Nuclear repulsion =   33.369566482980190

  Charge       = 0
  Multiplicity = 1
  Electrons    = 16
  Nalpha       = 8
  Nbeta        = 8

  ==> Algorithm <==

  SCF Algorithm Type is DF.
  DIIS enabled.
  MOM disabled.
  Fractional occupation disabled.
  Guess Type is SAD.
  Energy threshold   = 1.00e-08
  Density threshold  = 1.00e-08
  Integral threshold = 0.00e+00

  ==> Primary Basis <==

  Basis Set: JUN-CC-PVTZ
    Blend: JUN-CC-PVTZ
    Number of shells: 151
    Number of basis function: 413
    Number of Cartesian functions: 465
    Spherical Harmonics?: true
    Max angular momentum: 3

   => Loading Basis Set <=

    Name: (JUN-CC-PVTZ AUX)
    Role: JKFIT
    Keyword: DF_BASIS_SCF
    atoms 1-3, 12, 15        entry C          line   152 file /home/r08543048/miniconda3/share/psi4/basis/jun-cc-pvtz-jkfit.gbs 
    atoms 4-5                entry O          line   272 file /home/r08543048/miniconda3/share/psi4/basis/jun-cc-pvtz-jkfit.gbs 
    atoms 6-11, 13-14, 16-17 entry H          line    70 file /home/r08543048/miniconda3/share/psi4/basis/jun-cc-pvtz-jkfit.gbs 

  ==> Pre-Iterations <==

   -------------------------------------------------------
    Irrep   Nso     Nmo     Nalpha   Nbeta   Ndocc  Nsocc
   -------------------------------------------------------
     A        413     413       0       0       0       0
   -------------------------------------------------------
    Total     413     413       8       8       8       0
   -------------------------------------------------------

  ==> Integral Setup <==

  ==> DiskDFJK: Density-Fitted J/K Matrices <==

    J tasked:                  Yes
    K tasked:                  Yes
    wK tasked:                  No
    OpenMP threads:              1
    Integrals threads:           1
    Memory [MiB]:            15735
    Algorithm:                Core
    Integral Cache:           LOAD
    Schwarz Cutoff:          1E-12
    Fitting Condition:       1E-10

   => Auxiliary Basis Set <=

  Basis Set: (JUN-CC-PVTZ AUX)
    Blend: JUN-CC-PVTZ-JKFIT
    Number of shells: 303
    Number of basis function: 965
    Number of Cartesian functions: 1162
    Spherical Harmonics?: true
    Max angular momentum: 4

  Minimum eigenvalue in the overlap matrix is 4.0739569361E-05.
  Using Symmetric Orthogonalization.

  SCF Guess: Superposition of Atomic Densities via on-the-fly atomic UHF.

  ==> Iterations <==

                           Total Energy        Delta E     RMS |[F,P]|

   @DF-RHF iter SAD:   -77.28423733594620   -7.72842e+01   0.00000e+00 
   @DF-RHF iter   1:   -77.99012656521333   -7.05889e-01   8.66988e-04 DIIS
   @DF-RHF iter   2:   -78.05300909892013   -6.28825e-02   3.52082e-04 DIIS
   @DF-RHF iter   3:   -78.06369590361470   -1.06868e-02   5.47917e-05 DIIS
   @DF-RHF iter   4:   -78.06423999182135   -5.44088e-04   5.43949e-06 DIIS
   @DF-RHF iter   5:   -78.06424604987706   -6.05806e-06   6.20100e-07 DIIS
   @DF-RHF iter   6:   -78.06424614029136   -9.04143e-08   7.69952e-08 DIIS
   @DF-RHF iter   7:   -78.06424614153289   -1.24153e-09   1.36573e-08 DIIS
   @DF-RHF iter   8:   -78.06424614158325   -5.03633e-11   2.33807e-09 DIIS
  Energy and wave function converged.


  ==> Post-Iterations <==

    Orbital Energies [Eh]
    ---------------------

    Doubly Occupied:                                                      

       1A    -11.231927     2A    -11.230241     3A     -1.033701  
       4A     -0.792867     5A     -0.645455     6A     -0.585680  
       7A     -0.509730     8A     -0.376227  

    Virtual:                                                              

       9A      0.032887    10A      0.052719    11A      0.053096  
      12A      0.055930    13A      0.070738    14A      0.071586  
      15A      0.086453    16A      0.090834    17A      0.099476  
      18A      0.106314    19A      0.108354    20A      0.111457  
      21A      0.112094    22A      0.117834    23A      0.149439  
      24A      0.150047    25A      0.154061    26A      0.162635  
      27A      0.176565    28A      0.176917    29A      0.187758  
      30A      0.194990    31A      0.201354    32A      0.205086  
      33A      0.217132    34A      0.226904    35A      0.231013  
      36A      0.242847    37A      0.261448    38A      0.261797  
      39A      0.285275    40A      0.300181    41A      0.303562  
      42A      0.306737    43A      0.319798    44A      0.322692  
      45A      0.323558    46A      0.339238    47A      0.339462  
      48A      0.343736    49A      0.360622    50A      0.363326  
      51A      0.374044    52A      0.376989    53A      0.386370  
      54A      0.391818    55A      0.420056    56A      0.421270  
      57A      0.427572    58A      0.433085    59A      0.439681  
      60A      0.441150    61A      0.447283    62A      0.452869  
      63A      0.459846    64A      0.479696    65A      0.480103  
      66A      0.483385    67A      0.504318    68A      0.504926  
      69A      0.511405    70A      0.513036    71A      0.533845  
      72A      0.550852    73A      0.559950    74A      0.572415  
      75A      0.599912    76A      0.602226    77A      0.606241  
      78A      0.641845    79A      0.647257    80A      0.647327  
      81A      0.654499    82A      0.675349    83A      0.700935  
      84A      0.708558    85A      0.729357    86A      0.741028  
      87A      0.755262    88A      0.765924    89A      0.772369  
      90A      0.780410    91A      0.786176    92A      0.789380  
      93A      0.796599    94A      0.821317    95A      0.851527  
      96A      0.854081    97A      0.873394    98A      0.896728  
      99A      0.897993   100A      0.918303   101A      0.928049  
     102A      0.936672   103A      0.964892   104A      0.975501  
     105A      0.989548   106A      1.013092   107A      1.025090  
     108A      1.031515   109A      1.053591   110A      1.058347  
     111A      1.058590   112A      1.072176   113A      1.078048  
     114A      1.080280   115A      1.090691   116A      1.096944  
     117A      1.118121   118A      1.122810   119A      1.147500  
     120A      1.164181   121A      1.168139   122A      1.195018  
     123A      1.208992   124A      1.227163   125A      1.229663  
     126A      1.237242   127A      1.250809   128A      1.262176  
     129A      1.267542   130A      1.273969   131A      1.284614  
     132A      1.284871   133A      1.293160   134A      1.309976  
     135A      1.312632   136A      1.347404   137A      1.372889  
     138A      1.384780   139A      1.411921   140A      1.419579  
     141A      1.441995   142A      1.448422   143A      1.468237  
     144A      1.490731   145A      1.513262   146A      1.524252  
     147A      1.528227   148A      1.546229   149A      1.564940  
     150A      1.579116   151A      1.587759   152A      1.597523  
     153A      1.610691   154A      1.619346   155A      1.630802  
     156A      1.651246   157A      1.668045   158A      1.673170  
     159A      1.691621   160A      1.712870   161A      1.750877  
     162A      1.760241   163A      1.789925   164A      1.796019  
     165A      1.814862   166A      1.870357   167A      1.921870  
     168A      1.924074   169A      1.933517   170A      1.934989  
     171A      1.943451   172A      1.983425   173A      1.994127  
     174A      2.012187   175A      2.021596   176A      2.036545  
     177A      2.087145   178A      2.138241   179A      2.155652  
     180A      2.180998   181A      2.211627   182A      2.303174  
     183A      2.370667   184A      2.410243   185A      2.437848  
     186A      2.532042   187A      2.538402   188A      2.563967  
     189A      2.598233   190A      2.619760   191A      2.623714  
     192A      2.676692   193A      2.729394   194A      2.731488  
     195A      2.751815   196A      2.767515   197A      2.786113  
     198A      2.796217   199A      2.846005   200A      2.873095  
     201A      2.891764   202A      2.892478   203A      2.954987  
     204A      2.984361   205A      2.994597   206A      3.013705  
     207A      3.014662   208A      3.052010   209A      3.061926  
     210A      3.074297   211A      3.105451   212A      3.129916  
     213A      3.140659   214A      3.156060   215A      3.214297  
     216A      3.252394   217A      3.264078   218A      3.268430  
     219A      3.327726   220A      3.377601   221A      3.431248  
     222A      3.433636   223A      3.452992   224A      3.463324  
     225A      3.473870   226A      3.505598   227A      3.508279  
     228A      3.521974   229A      3.538993   230A      3.561853  
     231A      3.581088   232A      3.595637   233A      3.604280  
     234A      3.625432   235A      3.625764   236A      3.675712  
     237A      3.676967   238A      3.693532   239A      3.713554  
     240A      3.725474   241A      3.765722   242A      3.768995  
     243A      3.802434   244A      3.832060   245A      3.846367  
     246A      3.847757   247A      3.877227   248A      3.889746  
     249A      3.891498   250A      3.911547   251A      3.962589  
     252A      3.995796   253A      4.020862   254A      4.022040  
     255A      4.025938   256A      4.037562   257A      4.045935  
     258A      4.052287   259A      4.080085   260A      4.101587  
     261A      4.120603   262A      4.160250   263A      4.186347  
     264A      4.248715   265A      4.259899   266A      4.269928  
     267A      4.279287   268A      4.291820   269A      4.299850  
     270A      4.307249   271A      4.337945   272A      4.381749  
     273A      4.382197   274A      4.392606   275A      4.395404  
     276A      4.397695   277A      4.432824   278A      4.469390  
     279A      4.480974   280A      4.482780   281A      4.493557  
     282A      4.525059   283A      4.583467   284A      4.596479  
     285A      4.638744   286A      4.641141   287A      4.657483  
     288A      4.677063   289A      4.696060   290A      4.726352  
     291A      4.736644   292A      4.736990   293A      4.759677  
     294A      4.770582   295A      4.791048   296A      4.792461  
     297A      4.807279   298A      4.816795   299A      4.823401  
     300A      4.847768   301A      4.872435   302A      4.891123  
     303A      4.894324   304A      4.906867   305A      4.908878  
     306A      4.933294   307A      4.946523   308A      4.962734  
     309A      4.968664   310A      4.987730   311A      5.010072  
     312A      5.011282   313A      5.021966   314A      5.034673  
     315A      5.036445   316A      5.087519   317A      5.095352  
     318A      5.120739   319A      5.147950   320A      5.176776  
     321A      5.178974   322A      5.206786   323A      5.259321  
     324A      5.277156   325A      5.305881   326A      5.378711  
     327A      5.394193   328A      5.422549   329A      5.425705  
     330A      5.437880   331A      5.442353   332A      5.515423  
     333A      5.518208   334A      5.573570   335A      5.605875  
     336A      5.685654   337A      5.694599   338A      5.748200  
     339A      5.753398   340A      5.808985   341A      5.826481  
     342A      5.893571   343A      5.999790   344A      6.056956  
     345A      6.092486   346A      6.168698   347A      6.198730  
     348A      6.239165   349A      6.298314   350A      6.307660  
     351A      6.373419   352A      6.415329   353A      6.436452  
     354A      6.437508   355A      6.467971   356A      6.470672  
     357A      6.522924   358A      6.554057   359A      6.564142  
     360A      6.633772   361A      6.821253   362A      6.829853  
     363A      6.849815   364A      6.893408   365A      7.042824  
     366A      7.149693   367A      7.190694   368A      7.272755  
     369A      7.443082   370A      7.492674   371A      7.532574  
     372A      7.591101   373A      7.676634   374A      7.696427  
     375A      7.800948   376A      7.836914   377A      7.867654  
     378A      7.942838   379A      7.987599   380A      8.061257  
     381A      8.172463   382A      8.219843   383A      8.456558  
     384A      8.625200   385A      8.834666   386A      9.158926  
     387A      9.450294   388A      9.667244   389A      9.728487  
     390A      9.807694   391A      9.877310   392A      9.912911  
     393A      9.914420   394A      9.948217   395A      9.957124  
     396A     10.072476   397A     10.347845   398A     10.447997  
     399A     11.093952   400A     11.429544   401A     11.569476  
     402A     11.640506   403A     12.030532   404A     12.809092  
     405A     13.089135   406A     13.726259   407A     13.947092  
     408A     15.464155   409A     42.682868   410A     45.068542  
     411A     45.752853   412A     61.178605   413A     61.827780  

    Final Occupation by Irrep:
              A 
    DOCC [     8 ]

  @DF-RHF Final Energy:   -78.06424614158325

   => Energetics <=

    Nuclear Repulsion Energy =             33.3695664829801899
    One-Electron Energy =                -170.0559670378660257
    Two-Electron Energy =                  58.6221544133025816
    Total Energy =                        -78.0642461415832543

Computation Completed


Properties will be evaluated at   0.000000,   0.000000,   0.000000 [a0]

Properties computed using the SCF density matrix

  Nuclear Dipole Moment: [e a0]
     X:    92.3807      Y:    -7.2270      Z:     0.0013

  Electronic Dipole Moment: [e a0]
     X:   -92.3773      Y:     7.2242      Z:    -0.0013

  Dipole Moment: [e a0]
     X:     0.0033      Y:    -0.0028      Z:    -0.0000     Total:     0.0043

  Dipole Moment: [D]
     X:     0.0085      Y:    -0.0071      Z:    -0.0000     Total:     0.0110


*** tstop() called on r282 at Sat Sep 11 00:46:40 2021
Module time:
	user time   =      11.05 seconds =       0.18 minutes
	system time =       0.27 seconds =       0.00 minutes
	total time  =         11 seconds =       0.18 minutes
Total time:
	user time   =      57.01 seconds =       0.95 minutes
	system time =       1.61 seconds =       0.03 minutes
	total time  =         59 seconds =       0.98 minutes
  Constructing Basis Sets for SAPT...

   => Loading Basis Set <=

    Name: (JUN-CC-PVTZ AUX)
    Role: RIFIT
    Keyword: DF_BASIS_SAPT
    atoms 1-3, 12, 15        entry C          line   132 file /home/r08543048/miniconda3/share/psi4/basis/jun-cc-pvtz-ri.gbs 
    atoms 4-5                entry O          line   244 file /home/r08543048/miniconda3/share/psi4/basis/jun-cc-pvtz-ri.gbs 
    atoms 6-11, 13-14, 16-17 entry H          line    30 file /home/r08543048/miniconda3/share/psi4/basis/jun-cc-pvtz-ri.gbs 


  //>>>>>>>>>>>>>>>>>>>>>>>>>>>>>>>>>>>//
  //               SAPT0               //
  //<<<<<<<<<<<<<<<<<<<<<<<<<<<<<<<<<<<//


*** tstart() called on r282
*** at Sat Sep 11 00:46:40 2021

        SAPT0  
    Ed Hohenstein
     6 June 2009

      Orbital Information
  --------------------------
    NSO        =       413
    NMO        =       413
    NRI        =       979
    NOCC A     =        20
    NOCC B     =         8
    FOCC A     =         0
    FOCC B     =         0
    NVIR A     =       393
    NVIR B     =       405

    Elst10,r            =    -0.010678847390 [Eh]
    Exch10              =     0.012785964618 [Eh]
    Exch10 (S^2)        =     0.012672483319 [Eh]

    Iter     Energy [mEh]          dE [mEh]         Residual      Time [s]
       1      -0.79640252       0.796402516       4.071254749             1
       2      -0.95882962       0.162427104       1.686086588             1
       3      -0.97210106       0.013271442       0.559665688             2
       4      -0.96715590      -0.004945166       0.234163706             2
       5      -0.96624649      -0.000909402       0.079246134             3
       6      -0.96666167       0.000415177       0.035616665             4
       7      -0.96684827       0.000186599       0.008863233             4
       8      -0.96679077      -0.000057499       0.002992655             5
       9      -0.96677957      -0.000011202       0.000714228             5
      10      -0.96678428       0.000004712       0.000169755             6
      11      -0.96678403      -0.000000253       0.000038498             7
      12      -0.96678391      -0.000000115       0.000010821             7
      13      -0.96678392       0.000000005       0.000002795             8
      14      -0.96678393       0.000000010       0.000000671             8

    CHF Iterations converged


    Iter     Energy [mEh]          dE [mEh]         Residual      Time [s]
       1      -5.25261278       5.252612779      12.582358545             1
       2      -6.65201813       1.399405347       4.177327146             1
       3      -6.76865194       0.116633810       0.816126668             2
       4      -6.73476859      -0.033883347       0.216976865             2
       5      -6.73246490      -0.002303689       0.047191212             3
       6      -6.73399102       0.001526122       0.009653137             3
       7      -6.73378465      -0.000206371       0.002150030             4
       8      -6.73381127       0.000026616       0.000419452             4
       9      -6.73380919      -0.000002077       0.000097373             5
      10      -6.73380884      -0.000000357       0.000030657             5
      11      -6.73380892       0.000000086       0.000009490             6
      12      -6.73380897       0.000000053       0.000002012             6
      13      -6.73380896      -0.000000010       0.000000365             6

    CHF Iterations converged

    Ind20,r (A<-B)      =    -0.000966783928 [Eh]
    Ind20,r (B<-A)      =    -0.006733808965 [Eh]
    Ind20,r             =    -0.007700592893 [Eh]
    Exch-Ind20,r (A<-B) =     0.000803124309 [Eh]
    Exch-Ind20,r (B<-A) =     0.004476886573 [Eh]
    Exch-Ind20,r        =     0.005280010883 [Eh]
    Disp20              =    -0.007287157519 [Eh]
    Disp20 (SS)         =    -0.003643578759 [Eh]
    Disp20 (OS)         =    -0.003643578759 [Eh]
    Exch-Disp20         =     0.001147068198 [Eh]
    Exch-Disp20 (SS)    =     0.000747408027 [Eh]
    Exch-Disp20 (OS)    =     0.000399660171 [Eh]

    SAPT Results 
  --------------------------------------------------------------------------------------------------------
    Electrostatics                -10.67884739 [mEh]      -6.70107791 [kcal/mol]     -28.03730996 [kJ/mol]
      Elst10,r                    -10.67884739 [mEh]      -6.70107791 [kcal/mol]     -28.03730996 [kJ/mol]

    Exchange                       12.78596462 [mEh]       8.02331393 [kcal/mol]      33.56954548 [kJ/mol]
      Exch10                       12.78596462 [mEh]       8.02331393 [kcal/mol]      33.56954548 [kJ/mol]
      Exch10(S^2)                  12.67248332 [mEh]       7.95210334 [kcal/mol]      33.27160037 [kJ/mol]

    Induction                      -4.19489763 [mEh]      -2.63233800 [kcal/mol]     -11.01370221 [kJ/mol]
      Ind20,r                      -7.70059289 [mEh]      -4.83219499 [kcal/mol]     -20.21790386 [kJ/mol]
      Exch-Ind20,r                  5.28001088 [mEh]       3.31325685 [kcal/mol]      13.86266666 [kJ/mol]
      delta HF,r (2)               -1.77431562 [mEh]      -1.11339986 [kcal/mol]      -4.65846502 [kJ/mol]

    Dispersion                     -6.14008932 [mEh]      -3.85296422 [kcal/mol]     -16.12080229 [kJ/mol]
      Disp20                       -7.28715752 [mEh]      -4.57276038 [kcal/mol]     -19.13242943 [kJ/mol]
      Exch-Disp20                   1.14706820 [mEh]       0.71979616 [kcal/mol]       3.01162714 [kJ/mol]
      Disp20 (SS)                  -3.64357876 [mEh]      -2.28638019 [kcal/mol]      -9.56621471 [kJ/mol]
      Disp20 (OS)                  -3.64357876 [mEh]      -2.28638019 [kcal/mol]      -9.56621471 [kJ/mol]
      Exch-Disp20 (SS)              0.74740803 [mEh]       0.46900562 [kcal/mol]       1.96231950 [kJ/mol]
      Exch-Disp20 (OS)              0.39966017 [mEh]       0.25079054 [kcal/mol]       1.04930763 [kJ/mol]

  Total HF                         -2.08778040 [mEh]      -1.31010198 [kcal/mol]      -5.48146669 [kJ/mol]
  Total SAPT0                      -8.22786972 [mEh]      -5.16306620 [kcal/mol]     -21.60226898 [kJ/mol]

  Special recipe for scaled SAPT0 (see Manual):
    Electrostatics sSAPT0         -10.67884739 [mEh]      -6.70107791 [kcal/mol]     -28.03730996 [kJ/mol]
    Exchange sSAPT0                12.78596462 [mEh]       8.02331393 [kcal/mol]      33.56954548 [kJ/mol]
    Induction sSAPT0               -4.05177711 [mEh]      -2.54252852 [kcal/mol]     -10.63793933 [kJ/mol]
    Dispersion sSAPT0              -6.10899677 [mEh]      -3.83345335 [kcal/mol]     -16.03916881 [kJ/mol]
  Total sSAPT0                     -8.05365665 [mEh]      -5.05374585 [kcal/mol]     -21.14487262 [kJ/mol]
  --------------------------------------------------------------------------------------------------------

*** tstop() called on r282 at Sat Sep 11 00:47:40 2021
Module time:
	user time   =      50.42 seconds =       0.84 minutes
	system time =       9.75 seconds =       0.16 minutes
	total time  =         60 seconds =       1.00 minutes
Total time:
	user time   =     107.54 seconds =       1.79 minutes
	system time =      11.36 seconds =       0.19 minutes
	total time  =        119 seconds =       1.98 minutes

    Psi4 stopped on: Saturday, 11 September 2021 12:47AM
    Psi4 wall time for execution: 0:01:59.08

*** Psi4 exiting successfully. Buy a developer a beer!
