
    -----------------------------------------------------------------------
          Psi4: An Open-Source Ab Initio Electronic Structure Package
                               Psi4 1.3.2 release

                         Git: Rev {HEAD} ecbda83 


    R. M. Parrish, L. A. Burns, D. G. A. Smith, A. C. Simmonett,
    A. E. DePrince III, E. G. Hohenstein, U. Bozkaya, A. Yu. Sokolov,
    R. Di Remigio, R. M. Richard, J. F. Gonthier, A. M. James,
    H. R. McAlexander, A. Kumar, M. Saitow, X. Wang, B. P. Pritchard,
    P. Verma, H. F. Schaefer III, K. Patkowski, R. A. King, E. F. Valeev,
    F. A. Evangelista, J. M. Turney, T. D. Crawford, and C. D. Sherrill,
    J. Chem. Theory Comput. 13(7) pp 3185--3197 (2017).
    (doi: 10.1021/acs.jctc.7b00174)


                         Additional Contributions by
    P. Kraus, H. Kruse, M. H. Lechner, M. C. Schieber, R. A. Shaw,
    A. Alenaizan, R. Galvelis, Z. L. Glick, S. Lehtola, and J. P. Misiewicz

    -----------------------------------------------------------------------


    Psi4 started on: Saturday, 11 September 2021 12:11AM

    Process ID: 57355
    Host:       r282
    PSIDATADIR: /home/r08543048/miniconda3/share/psi4
    Memory:     500.0 MiB
    Threads:    1
    
  ==> Input File <==

--------------------------------------------------------------------------
# Any line starting with the # character is a comment line
#! Sample  computation

memory 22 gb

molecule Dimer {
0 1
 C  -2.034948   -1.247076   -0.010494
 O  -2.109254   -0.254445   -0.906156
 O  -1.337172   -1.253846    0.977017
 H  -2.700678   -2.063705   -0.303391
 H  -1.508296    0.462312   -0.610458






  
  
  
  
  
  
    
    
 --
0 1
 C   -0.670025    2.277569    0.381301
 C    0.469300    1.833908   -0.167483
 C    1.327341    0.753569    0.407336
 C    1.639601   -0.347821   -0.606340
 C    2.472156   -1.461991    0.013625
 H   -1.033124    1.862889    1.314114
 H   -1.243735    3.071651   -0.077250
 H    0.806395    2.280184   -1.099857
 H    2.272996    1.190598    0.744752
 H    0.834640    0.320733    1.280237
 H    0.704812   -0.759833   -0.991802
 H    2.167148    0.086672   -1.459548
 H    3.414163   -1.071844    0.401329
 H    1.932321   -1.923085    0.841041
 H    2.704224   -2.239198   -0.713735




units angstrom

no_reorient
symmetry c1
}

set globals{
  basis jun-cc-pvtz
}

energy('sapt0')


--------------------------------------------------------------------------

  Memory set to  20.489 GiB by Python driver.

  //>>>>>>>>>>>>>>>>>>>>>>>>>>>>>>>>>>>//
  //              Dimer HF             //
  //<<<<<<<<<<<<<<<<<<<<<<<<<<<<<<<<<<<//


*** tstart() called on r282
*** at Sat Sep 11 00:11:40 2021

   => Loading Basis Set <=

    Name: JUN-CC-PVTZ
    Role: ORBITAL
    Keyword: BASIS
    atoms 1, 6-10    entry C          line   217 file /home/r08543048/miniconda3/share/psi4/basis/jun-cc-pvtz.gbs 
    atoms 2-3        entry O          line   305 file /home/r08543048/miniconda3/share/psi4/basis/jun-cc-pvtz.gbs 
    atoms 4-5, 11-20 entry H          line    36 file /home/r08543048/miniconda3/share/psi4/basis/jun-cc-pvtz.gbs 


         ---------------------------------------------------------
                                   SCF
               by Justin Turney, Rob Parrish, Andy Simmonett
                          and Daniel G. A. Smith
                              RHF Reference
                        1 Threads,  20980 MiB Core
         ---------------------------------------------------------

  ==> Geometry <==

    Molecular point group: c1
    Full point group: C1

    Geometry (in Angstrom), charge = 0, multiplicity = 1:

       Center              X                  Y                   Z               Mass       
    ------------   -----------------  -----------------  -----------------  -----------------
         C           -1.963723739342    -1.236736999181    -0.016256298736    12.000000000000
         O           -2.038029739342    -0.244105999181    -0.911918298736    15.994914619570
         O           -1.265947739342    -1.243506999181     0.971254701264    15.994914619570
         H           -2.629453739342    -2.053365999181    -0.309153298736     1.007825032230
         H           -1.437071739342     0.472651000819    -0.616220298736     1.007825032230
         C           -0.598800739342     2.287908000819     0.375538701264    12.000000000000
         C            0.540524260658     1.844247000819    -0.173245298736    12.000000000000
         C            1.398565260658     0.763908000819     0.401573701264    12.000000000000
         C            1.710825260658    -0.337481999181    -0.612102298736    12.000000000000
         C            2.543380260658    -1.451651999181     0.007862701264    12.000000000000
         H           -0.961899739342     1.873228000819     1.308351701264     1.007825032230
         H           -1.172510739342     3.081990000819    -0.083012298736     1.007825032230
         H            0.877619260658     2.290523000819    -1.105619298736     1.007825032230
         H            2.344220260658     1.200937000819     0.738989701264     1.007825032230
         H            0.905864260658     0.331072000819     1.274474701264     1.007825032230
         H            0.776036260658    -0.749493999181    -0.997564298736     1.007825032230
         H            2.238372260658     0.097011000819    -1.465310298736     1.007825032230
         H            3.485387260658    -1.061504999181     0.395566701264     1.007825032230
         H            2.003545260658    -1.912745999181     0.835278701264     1.007825032230
         H            2.775448260658    -2.228858999181    -0.719497298736     1.007825032230

  Running in c1 symmetry.

  Rotational constants: A =      0.06424  B =      0.04454  C =      0.03083 [cm^-1]
  Rotational constants: A =   1925.88347  B =   1335.41207  C =    924.29496 [MHz]
  Nuclear repulsion =  373.919808881177573

  Charge       = 0
  Multiplicity = 1
  Electrons    = 64
  Nalpha       = 32
  Nbeta        = 32

  ==> Algorithm <==

  SCF Algorithm Type is DF.
  DIIS enabled.
  MOM disabled.
  Fractional occupation disabled.
  Guess Type is SAD.
  Energy threshold   = 1.00e-08
  Density threshold  = 1.00e-08
  Integral threshold = 0.00e+00

  ==> Primary Basis <==

  Basis Set: JUN-CC-PVTZ
    Blend: JUN-CC-PVTZ
    Number of shells: 176
    Number of basis function: 480
    Number of Cartesian functions: 540
    Spherical Harmonics?: true
    Max angular momentum: 3

   => Loading Basis Set <=

    Name: (JUN-CC-PVTZ AUX)
    Role: JKFIT
    Keyword: DF_BASIS_SCF
    atoms 1, 6-10    entry C          line   152 file /home/r08543048/miniconda3/share/psi4/basis/jun-cc-pvtz-jkfit.gbs 
    atoms 2-3        entry O          line   272 file /home/r08543048/miniconda3/share/psi4/basis/jun-cc-pvtz-jkfit.gbs 
    atoms 4-5, 11-20 entry H          line    70 file /home/r08543048/miniconda3/share/psi4/basis/jun-cc-pvtz-jkfit.gbs 

  ==> Pre-Iterations <==

   -------------------------------------------------------
    Irrep   Nso     Nmo     Nalpha   Nbeta   Ndocc  Nsocc
   -------------------------------------------------------
     A        480     480       0       0       0       0
   -------------------------------------------------------
    Total     480     480      32      32      32       0
   -------------------------------------------------------

  ==> Integral Setup <==

  ==> DiskDFJK: Density-Fitted J/K Matrices <==

    J tasked:                  Yes
    K tasked:                  Yes
    wK tasked:                  No
    OpenMP threads:              1
    Integrals threads:           1
    Memory [MiB]:            15735
    Algorithm:                Core
    Integral Cache:           SAVE
    Schwarz Cutoff:          1E-12
    Fitting Condition:       1E-10

   => Auxiliary Basis Set <=

  Basis Set: (JUN-CC-PVTZ AUX)
    Blend: JUN-CC-PVTZ-JKFIT
    Number of shells: 352
    Number of basis function: 1120
    Number of Cartesian functions: 1348
    Spherical Harmonics?: true
    Max angular momentum: 4

  Minimum eigenvalue in the overlap matrix is 2.9026585971E-05.
  Using Symmetric Orthogonalization.

  SCF Guess: Superposition of Atomic Densities via on-the-fly atomic UHF.

  ==> Iterations <==

                           Total Energy        Delta E     RMS |[F,P]|

   @DF-RHF iter SAD:  -382.64219278438571   -3.82642e+02   0.00000e+00 
   @DF-RHF iter   1:  -383.74912669489669   -1.10693e+00   1.60291e-03 DIIS
   @DF-RHF iter   2:  -383.97838403571075   -2.29257e-01   9.14819e-04 DIIS
   @DF-RHF iter   3:  -384.05138338350565   -7.29993e-02   1.78442e-04 DIIS
   @DF-RHF iter   4:  -384.05554662239808   -4.16324e-03   7.69295e-05 DIIS
   @DF-RHF iter   5:  -384.05629609214367   -7.49470e-04   1.59427e-05 DIIS
   @DF-RHF iter   6:  -384.05634649465156   -5.04025e-05   7.30388e-06 DIIS
   @DF-RHF iter   7:  -384.05635856551896   -1.20709e-05   2.40999e-06 DIIS
   @DF-RHF iter   8:  -384.05636068240148   -2.11688e-06   1.00432e-06 DIIS
   @DF-RHF iter   9:  -384.05636102885040   -3.46449e-07   2.72815e-07 DIIS
   @DF-RHF iter  10:  -384.05636105305427   -2.42039e-08   8.62181e-08 DIIS
   @DF-RHF iter  11:  -384.05636105503947   -1.98520e-09   2.77456e-08 DIIS
   @DF-RHF iter  12:  -384.05636105523604   -1.96565e-10   7.28325e-09 DIIS
  Energy and wave function converged.


  ==> Post-Iterations <==

    Orbital Energies [Eh]
    ---------------------

    Doubly Occupied:                                                      

       1A    -20.613209     2A    -20.558350     3A    -11.389786  
       4A    -11.247075     5A    -11.229597     6A    -11.223061  
       7A    -11.220455     8A    -11.208592     9A     -1.464159  
      10A     -1.365456    11A     -1.096839    12A     -1.029437  
      13A     -0.927072    14A     -0.886738    15A     -0.813380  
      16A     -0.767349    17A     -0.715316    18A     -0.705249  
      19A     -0.657853    20A     -0.629813    21A     -0.618774  
      22A     -0.599287    23A     -0.592079    24A     -0.567881  
      25A     -0.540624    26A     -0.515322    27A     -0.486319  
      28A     -0.483212    29A     -0.479178    30A     -0.471362  
      31A     -0.464747    32A     -0.372555  

    Virtual:                                                              

      33A      0.049575    34A      0.052725    35A      0.056146  
      36A      0.057520    37A      0.070746    38A      0.080765  
      39A      0.081491    40A      0.088341    41A      0.093267  
      42A      0.103846    43A      0.105734    44A      0.116270  
      45A      0.120488    46A      0.126974    47A      0.130574  
      48A      0.139531    49A      0.145558    50A      0.160614  
      51A      0.170658    52A      0.176688    53A      0.188129  
      54A      0.193818    55A      0.197387    56A      0.198948  
      57A      0.199661    58A      0.208736    59A      0.218692  
      60A      0.226291    61A      0.238130    62A      0.244315  
      63A      0.254986    64A      0.257165    65A      0.265741  
      66A      0.277366    67A      0.279361    68A      0.291895  
      69A      0.299548    70A      0.302360    71A      0.315986  
      72A      0.320795    73A      0.322566    74A      0.326373  
      75A      0.332232    76A      0.338827    77A      0.345336  
      78A      0.349341    79A      0.352425    80A      0.363920  
      81A      0.379574    82A      0.385316    83A      0.389892  
      84A      0.402261    85A      0.403020    86A      0.407139  
      87A      0.411653    88A      0.422417    89A      0.430483  
      90A      0.435169    91A      0.450032    92A      0.453538  
      93A      0.462873    94A      0.464911    95A      0.476472  
      96A      0.488009    97A      0.498986    98A      0.506247  
      99A      0.511207   100A      0.523947   101A      0.528242  
     102A      0.534539   103A      0.538993   104A      0.545748  
     105A      0.561164   106A      0.565655   107A      0.574016  
     108A      0.585077   109A      0.591691   110A      0.598407  
     111A      0.605653   112A      0.622425   113A      0.628341  
     114A      0.632803   115A      0.656360   116A      0.670248  
     117A      0.676568   118A      0.689395   119A      0.707581  
     120A      0.719537   121A      0.728515   122A      0.740048  
     123A      0.744311   124A      0.748378   125A      0.755122  
     126A      0.764815   127A      0.775709   128A      0.793919  
     129A      0.799517   130A      0.805107   131A      0.817560  
     132A      0.823515   133A      0.835923   134A      0.842726  
     135A      0.849998   136A      0.857171   137A      0.864469  
     138A      0.874073   139A      0.882818   140A      0.892875  
     141A      0.895265   142A      0.901001   143A      0.909965  
     144A      0.919477   145A      0.935671   146A      0.944787  
     147A      0.956300   148A      0.977095   149A      0.982082  
     150A      0.996149   151A      1.004446   152A      1.018246  
     153A      1.030469   154A      1.046157   155A      1.064905  
     156A      1.072728   157A      1.081073   158A      1.091059  
     159A      1.099376   160A      1.106575   161A      1.121621  
     162A      1.131198   163A      1.147443   164A      1.166159  
     165A      1.169109   166A      1.191846   167A      1.207211  
     168A      1.220743   169A      1.230725   170A      1.238538  
     171A      1.243810   172A      1.270246   173A      1.275853  
     174A      1.284215   175A      1.289790   176A      1.295143  
     177A      1.325571   178A      1.327117   179A      1.345857  
     180A      1.355834   181A      1.362545   182A      1.385293  
     183A      1.393298   184A      1.398877   185A      1.399217  
     186A      1.409809   187A      1.430125   188A      1.441942  
     189A      1.445075   190A      1.461645   191A      1.471191  
     192A      1.479805   193A      1.491016   194A      1.515489  
     195A      1.521694   196A      1.528682   197A      1.549637  
     198A      1.569668   199A      1.584902   200A      1.586086  
     201A      1.596687   202A      1.603156   203A      1.607347  
     204A      1.629621   205A      1.636192   206A      1.644162  
     207A      1.660894   208A      1.686211   209A      1.701924  
     210A      1.712945   211A      1.735470   212A      1.751277  
     213A      1.752158   214A      1.764366   215A      1.788442  
     216A      1.792765   217A      1.800019   218A      1.841417  
     219A      1.846629   220A      1.878467   221A      1.893291  
     222A      1.898381   223A      1.925923   224A      1.938513  
     225A      1.963624   226A      1.972250   227A      1.984549  
     228A      2.043027   229A      2.078538   230A      2.121418  
     231A      2.137834   232A      2.201355   233A      2.216322  
     234A      2.241729   235A      2.278342   236A      2.321704  
     237A      2.355967   238A      2.398127   239A      2.407990  
     240A      2.450972   241A      2.523748   242A      2.589225  
     243A      2.635483   244A      2.707570   245A      2.744394  
     246A      2.754941   247A      2.766380   248A      2.797480  
     249A      2.807722   250A      2.827954   251A      2.836929  
     252A      2.851334   253A      2.866202   254A      2.872721  
     255A      2.890812   256A      2.911067   257A      2.929609  
     258A      2.960339   259A      2.962859   260A      2.987207  
     261A      3.005575   262A      3.028296   263A      3.040544  
     264A      3.076479   265A      3.093085   266A      3.102489  
     267A      3.126024   268A      3.127254   269A      3.135271  
     270A      3.149134   271A      3.157035   272A      3.174779  
     273A      3.198440   274A      3.202227   275A      3.213902  
     276A      3.220443   277A      3.238320   278A      3.255452  
     279A      3.259018   280A      3.287252   281A      3.302374  
     282A      3.316914   283A      3.318108   284A      3.344724  
     285A      3.350050   286A      3.363311   287A      3.373948  
     288A      3.390915   289A      3.393758   290A      3.404799  
     291A      3.412361   292A      3.429420   293A      3.446519  
     294A      3.464328   295A      3.477995   296A      3.486071  
     297A      3.493357   298A      3.503609   299A      3.511116  
     300A      3.518173   301A      3.527595   302A      3.531173  
     303A      3.540799   304A      3.550967   305A      3.575397  
     306A      3.584401   307A      3.590099   308A      3.593308  
     309A      3.608451   310A      3.619666   311A      3.624812  
     312A      3.627174   313A      3.655155   314A      3.671359  
     315A      3.678407   316A      3.691086   317A      3.724028  
     318A      3.732706   319A      3.744893   320A      3.772590  
     321A      3.782302   322A      3.787668   323A      3.798525  
     324A      3.832023   325A      3.833737   326A      3.846101  
     327A      3.853249   328A      3.868054   329A      3.888988  
     330A      3.911464   331A      3.927139   332A      3.939228  
     333A      3.948518   334A      3.956296   335A      3.970619  
     336A      3.979348   337A      4.013954   338A      4.019261  
     339A      4.033575   340A      4.048171   341A      4.070164  
     342A      4.091970   343A      4.142836   344A      4.148854  
     345A      4.169273   346A      4.182581   347A      4.201918  
     348A      4.216726   349A      4.234955   350A      4.247625  
     351A      4.269201   352A      4.271842   353A      4.281861  
     354A      4.295091   355A      4.310700   356A      4.326298  
     357A      4.335339   358A      4.360548   359A      4.368599  
     360A      4.380884   361A      4.383582   362A      4.404340  
     363A      4.422048   364A      4.432085   365A      4.438991  
     366A      4.448888   367A      4.457038   368A      4.466051  
     369A      4.495792   370A      4.497694   371A      4.505916  
     372A      4.517968   373A      4.536343   374A      4.566119  
     375A      4.583542   376A      4.602157   377A      4.616724  
     378A      4.623138   379A      4.643478   380A      4.660034  
     381A      4.665668   382A      4.690671   383A      4.725770  
     384A      4.735943   385A      4.740158   386A      4.769036  
     387A      4.780526   388A      4.797076   389A      4.804984  
     390A      4.844889   391A      4.875250   392A      4.891297  
     393A      4.901892   394A      4.939850   395A      4.949433  
     396A      4.994802   397A      5.015139   398A      5.045744  
     399A      5.050661   400A      5.064569   401A      5.067907  
     402A      5.125938   403A      5.156023   404A      5.170375  
     405A      5.191108   406A      5.208134   407A      5.225632  
     408A      5.249692   409A      5.270304   410A      5.284065  
     411A      5.290852   412A      5.299120   413A      5.341843  
     414A      5.367277   415A      5.375825   416A      5.388371  
     417A      5.426215   418A      5.438226   419A      5.463000  
     420A      5.485275   421A      5.515363   422A      5.564326  
     423A      5.617953   424A      5.634698   425A      5.643495  
     426A      5.654241   427A      5.661670   428A      5.677642  
     429A      5.713891   430A      5.757802   431A      5.778314  
     432A      5.795877   433A      5.805185   434A      5.819387  
     435A      5.874918   436A      5.882024   437A      5.923131  
     438A      5.934182   439A      5.940484   440A      5.964577  
     441A      5.988767   442A      6.017390   443A      6.064023  
     444A      6.132191   445A      6.206663   446A      6.225099  
     447A      6.257613   448A      6.409155   449A      6.487811  
     450A      6.511699   451A      6.519224   452A      6.535526  
     453A      6.593868   454A      6.622095   455A      6.697449  
     456A      6.753112   457A      6.855398   458A      6.950086  
     459A      6.990305   460A      7.145377   461A      7.219909  
     462A      7.245622   463A      7.269323   464A      7.333275  
     465A      7.390220   466A      7.449014   467A      7.494157  
     468A      7.618244   469A      7.722568   470A      7.793820  
     471A      7.960812   472A      8.142106   473A     12.606879  
     474A     12.773700   475A     13.715864   476A     13.975620  
     477A     14.418328   478A     14.584771   479A     14.700172  
     480A     15.363072  

    Final Occupation by Irrep:
              A 
    DOCC [    32 ]

  @DF-RHF Final Energy:  -384.05636105523604

   => Energetics <=

    Nuclear Repulsion Energy =            373.9198088811775733
    One-Electron Energy =               -1264.0720919719160520
    Two-Electron Energy =                 506.0959220355024399
    Total Energy =                       -384.0563610552360387

Computation Completed


Properties will be evaluated at   0.000000,   0.000000,   0.000000 [a0]

Properties computed using the SCF density matrix

  Nuclear Dipole Moment: [e a0]
     X:     8.6141      Y:     1.2504      Z:    -0.6969

  Electronic Dipole Moment: [e a0]
     X:    -8.6105      Y:    -1.0398      Z:     0.2036

  Dipole Moment: [e a0]
     X:     0.0036      Y:     0.2106      Z:    -0.4933     Total:     0.5364

  Dipole Moment: [D]
     X:     0.0091      Y:     0.5354      Z:    -1.2538     Total:     1.3634


*** tstop() called on r282 at Sat Sep 11 00:12:39 2021
Module time:
	user time   =      58.00 seconds =       0.97 minutes
	system time =       1.30 seconds =       0.02 minutes
	total time  =         59 seconds =       0.98 minutes
Total time:
	user time   =      58.00 seconds =       0.97 minutes
	system time =       1.30 seconds =       0.02 minutes
	total time  =         59 seconds =       0.98 minutes

  //>>>>>>>>>>>>>>>>>>>>>>>>>>>>>>>>>>>//
  //            Monomer A HF           //
  //<<<<<<<<<<<<<<<<<<<<<<<<<<<<<<<<<<<//


*** tstart() called on r282
*** at Sat Sep 11 00:12:39 2021

   => Loading Basis Set <=

    Name: JUN-CC-PVTZ
    Role: ORBITAL
    Keyword: BASIS
    atoms 1, 6-10    entry C          line   217 file /home/r08543048/miniconda3/share/psi4/basis/jun-cc-pvtz.gbs 
    atoms 2-3        entry O          line   305 file /home/r08543048/miniconda3/share/psi4/basis/jun-cc-pvtz.gbs 
    atoms 4-5, 11-20 entry H          line    36 file /home/r08543048/miniconda3/share/psi4/basis/jun-cc-pvtz.gbs 


         ---------------------------------------------------------
                                   SCF
               by Justin Turney, Rob Parrish, Andy Simmonett
                          and Daniel G. A. Smith
                              RHF Reference
                        1 Threads,  20980 MiB Core
         ---------------------------------------------------------

  ==> Geometry <==

    Molecular point group: c1
    Full point group: C1

    Geometry (in Angstrom), charge = 0, multiplicity = 1:

       Center              X                  Y                   Z               Mass       
    ------------   -----------------  -----------------  -----------------  -----------------
         C           -1.963723739342    -1.236736999181    -0.016256298736    12.000000000000
         O           -2.038029739342    -0.244105999181    -0.911918298736    15.994914619570
         O           -1.265947739342    -1.243506999181     0.971254701264    15.994914619570
         H           -2.629453739342    -2.053365999181    -0.309153298736     1.007825032230
         H           -1.437071739342     0.472651000819    -0.616220298736     1.007825032230
      Gh(C)          -0.598800739342     2.287908000819     0.375538701264    12.000000000000
      Gh(C)           0.540524260658     1.844247000819    -0.173245298736    12.000000000000
      Gh(C)           1.398565260658     0.763908000819     0.401573701264    12.000000000000
      Gh(C)           1.710825260658    -0.337481999181    -0.612102298736    12.000000000000
      Gh(C)           2.543380260658    -1.451651999181     0.007862701264    12.000000000000
      Gh(H)          -0.961899739342     1.873228000819     1.308351701264     1.007825032230
      Gh(H)          -1.172510739342     3.081990000819    -0.083012298736     1.007825032230
      Gh(H)           0.877619260658     2.290523000819    -1.105619298736     1.007825032230
      Gh(H)           2.344220260658     1.200937000819     0.738989701264     1.007825032230
      Gh(H)           0.905864260658     0.331072000819     1.274474701264     1.007825032230
      Gh(H)           0.776036260658    -0.749493999181    -0.997564298736     1.007825032230
      Gh(H)           2.238372260658     0.097011000819    -1.465310298736     1.007825032230
      Gh(H)           3.485387260658    -1.061504999181     0.395566701264     1.007825032230
      Gh(H)           2.003545260658    -1.912745999181     0.835278701264     1.007825032230
      Gh(H)           2.775448260658    -2.228858999181    -0.719497298736     1.007825032230

  Running in c1 symmetry.

  Rotational constants: A =      0.06424  B =      0.04454  C =      0.03083 [cm^-1]
  Rotational constants: A =   1925.88347  B =   1335.41207  C =    924.29496 [MHz]
  Nuclear repulsion =   70.005362543061892

  Charge       = 0
  Multiplicity = 1
  Electrons    = 24
  Nalpha       = 12
  Nbeta        = 12

  ==> Algorithm <==

  SCF Algorithm Type is DF.
  DIIS enabled.
  MOM disabled.
  Fractional occupation disabled.
  Guess Type is SAD.
  Energy threshold   = 1.00e-08
  Density threshold  = 1.00e-08
  Integral threshold = 0.00e+00

  ==> Primary Basis <==

  Basis Set: JUN-CC-PVTZ
    Blend: JUN-CC-PVTZ
    Number of shells: 176
    Number of basis function: 480
    Number of Cartesian functions: 540
    Spherical Harmonics?: true
    Max angular momentum: 3

   => Loading Basis Set <=

    Name: (JUN-CC-PVTZ AUX)
    Role: JKFIT
    Keyword: DF_BASIS_SCF
    atoms 1, 6-10    entry C          line   152 file /home/r08543048/miniconda3/share/psi4/basis/jun-cc-pvtz-jkfit.gbs 
    atoms 2-3        entry O          line   272 file /home/r08543048/miniconda3/share/psi4/basis/jun-cc-pvtz-jkfit.gbs 
    atoms 4-5, 11-20 entry H          line    70 file /home/r08543048/miniconda3/share/psi4/basis/jun-cc-pvtz-jkfit.gbs 

  ==> Pre-Iterations <==

   -------------------------------------------------------
    Irrep   Nso     Nmo     Nalpha   Nbeta   Ndocc  Nsocc
   -------------------------------------------------------
     A        480     480       0       0       0       0
   -------------------------------------------------------
    Total     480     480      12      12      12       0
   -------------------------------------------------------

  ==> Integral Setup <==

  ==> DiskDFJK: Density-Fitted J/K Matrices <==

    J tasked:                  Yes
    K tasked:                  Yes
    wK tasked:                  No
    OpenMP threads:              1
    Integrals threads:           1
    Memory [MiB]:            15735
    Algorithm:                Core
    Integral Cache:           LOAD
    Schwarz Cutoff:          1E-12
    Fitting Condition:       1E-10

   => Auxiliary Basis Set <=

  Basis Set: (JUN-CC-PVTZ AUX)
    Blend: JUN-CC-PVTZ-JKFIT
    Number of shells: 352
    Number of basis function: 1120
    Number of Cartesian functions: 1348
    Spherical Harmonics?: true
    Max angular momentum: 4

  Minimum eigenvalue in the overlap matrix is 2.9026585971E-05.
  Using Symmetric Orthogonalization.

  SCF Guess: Superposition of Atomic Densities via on-the-fly atomic UHF.

  ==> Iterations <==

                           Total Energy        Delta E     RMS |[F,P]|

   @DF-RHF iter SAD:  -187.99757634757560   -1.87998e+02   0.00000e+00 
   @DF-RHF iter   1:  -188.73568145980158   -7.38105e-01   1.09286e-03 DIIS
   @DF-RHF iter   2:  -188.79774586198207   -6.20644e-02   7.74801e-04 DIIS
   @DF-RHF iter   3:  -188.84106551418625   -4.33197e-02   8.89061e-05 DIIS
   @DF-RHF iter   4:  -188.84214724581207   -1.08173e-03   4.77045e-05 DIIS
   @DF-RHF iter   5:  -188.84241820672503   -2.70961e-04   1.16570e-05 DIIS
   @DF-RHF iter   6:  -188.84246047398483   -4.22673e-05   5.10764e-06 DIIS
   @DF-RHF iter   7:  -188.84247008275571   -9.60877e-06   1.79370e-06 DIIS
   @DF-RHF iter   8:  -188.84247111101405   -1.02826e-06   5.34320e-07 DIIS
   @DF-RHF iter   9:  -188.84247120188195   -9.08679e-08   1.53911e-07 DIIS
   @DF-RHF iter  10:  -188.84247120929794   -7.41599e-09   3.53316e-08 DIIS
   @DF-RHF iter  11:  -188.84247120964494   -3.47001e-10   6.20737e-09 DIIS
  Energy and wave function converged.


  ==> Post-Iterations <==

    Orbital Energies [Eh]
    ---------------------

    Doubly Occupied:                                                      

       1A    -20.632750     2A    -20.567180     3A    -11.398487  
       4A     -1.476935     5A     -1.375236     6A     -0.898449  
       7A     -0.726443     8A     -0.713127     9A     -0.639141  
      10A     -0.603392    11A     -0.495994    12A     -0.474290  

    Virtual:                                                              

      13A      0.026619    14A      0.040683    15A      0.051613  
      16A      0.053125    17A      0.065313    18A      0.076391  
      19A      0.077953    20A      0.082792    21A      0.086137  
      22A      0.101047    23A      0.103081    24A      0.111739  
      25A      0.113832    26A      0.117136    27A      0.126107  
      28A      0.132310    29A      0.134381    30A      0.144620  
      31A      0.154171    32A      0.158948    33A      0.167589  
      34A      0.170244    35A      0.173640    36A      0.185188  
      37A      0.192628    38A      0.202874    39A      0.211523  
      40A      0.217937    41A      0.234585    42A      0.237766  
      43A      0.241684    44A      0.260740    45A      0.263651  
      46A      0.272496    47A      0.277295    48A      0.287909  
      49A      0.293287    50A      0.301104    51A      0.304530  
      52A      0.312235    53A      0.319572    54A      0.334699  
      55A      0.336662    56A      0.340922    57A      0.347052  
      58A      0.350680    59A      0.368012    60A      0.373943  
      61A      0.379065    62A      0.384234    63A      0.390523  
      64A      0.400763    65A      0.402714    66A      0.408085  
      67A      0.422094    68A      0.429890    69A      0.431979  
      70A      0.449996    71A      0.454081    72A      0.468145  
      73A      0.471786    74A      0.476155    75A      0.482631  
      76A      0.490319    77A      0.506155    78A      0.514311  
      79A      0.520855    80A      0.531834    81A      0.540618  
      82A      0.552846    83A      0.556027    84A      0.564492  
      85A      0.565106    86A      0.579368    87A      0.593908  
      88A      0.595583    89A      0.608222    90A      0.609567  
      91A      0.619807    92A      0.621632    93A      0.628379  
      94A      0.634870    95A      0.646940    96A      0.658245  
      97A      0.671440    98A      0.673985    99A      0.679088  
     100A      0.694865   101A      0.702425   102A      0.716793  
     103A      0.721408   104A      0.725530   105A      0.731348  
     106A      0.746829   107A      0.760649   108A      0.771649  
     109A      0.784716   110A      0.790193   111A      0.801093  
     112A      0.819448   113A      0.826789   114A      0.836118  
     115A      0.869983   116A      0.882033   117A      0.893461  
     118A      0.909868   119A      0.925931   120A      0.948308  
     121A      0.964228   122A      1.006652   123A      1.037912  
     124A      1.054215   125A      1.070597   126A      1.079710  
     127A      1.094009   128A      1.102549   129A      1.115777  
     130A      1.123153   131A      1.142701   132A      1.149794  
     133A      1.157141   134A      1.162422   135A      1.172557  
     136A      1.184818   137A      1.200591   138A      1.206537  
     139A      1.214504   140A      1.220916   141A      1.223238  
     142A      1.246999   143A      1.251859   144A      1.254021  
     145A      1.265435   146A      1.270670   147A      1.284496  
     148A      1.299974   149A      1.306727   150A      1.315919  
     151A      1.321112   152A      1.329065   153A      1.335261  
     154A      1.340779   155A      1.360466   156A      1.371077  
     157A      1.374088   158A      1.378601   159A      1.391037  
     160A      1.393549   161A      1.406090   162A      1.414515  
     163A      1.422628   164A      1.443018   165A      1.451952  
     166A      1.464145   167A      1.474166   168A      1.480722  
     169A      1.488301   170A      1.497743   171A      1.512169  
     172A      1.516078   173A      1.527753   174A      1.545426  
     175A      1.553275   176A      1.560770   177A      1.572851  
     178A      1.583812   179A      1.590534   180A      1.598004  
     181A      1.613135   182A      1.624443   183A      1.626629  
     184A      1.645467   185A      1.660901   186A      1.676142  
     187A      1.684855   188A      1.706076   189A      1.724820  
     190A      1.733499   191A      1.757398   192A      1.769521  
     193A      1.790179   194A      1.813102   195A      1.834826  
     196A      1.851124   197A      1.864018   198A      1.884473  
     199A      1.905894   200A      1.922082   201A      1.954705  
     202A      1.972665   203A      1.996245   204A      2.019678  
     205A      2.061447   206A      2.091452   207A      2.104590  
     208A      2.147564   209A      2.162070   210A      2.185299  
     211A      2.194108   212A      2.208618   213A      2.226448  
     214A      2.241060   215A      2.255573   216A      2.281107  
     217A      2.313838   218A      2.335274   219A      2.364802  
     220A      2.371742   221A      2.380211   222A      2.404675  
     223A      2.411040   224A      2.435749   225A      2.444643  
     226A      2.461288   227A      2.480646   228A      2.502767  
     229A      2.518583   230A      2.548154   231A      2.576385  
     232A      2.605384   233A      2.621475   234A      2.644975  
     235A      2.655289   236A      2.679395   237A      2.736743  
     238A      2.773504   239A      2.785099   240A      2.912396  
     241A      2.952443   242A      3.116217   243A      3.135496  
     244A      3.250117   245A      3.315853   246A      3.355683  
     247A      3.428032   248A      3.451651   249A      3.478947  
     250A      3.488041   251A      3.503676   252A      3.517060  
     253A      3.535911   254A      3.545266   255A      3.564320  
     256A      3.575994   257A      3.582432   258A      3.598101  
     259A      3.610034   260A      3.617782   261A      3.625850  
     262A      3.635902   263A      3.655143   264A      3.665193  
     265A      3.679989   266A      3.696447   267A      3.712616  
     268A      3.739729   269A      3.745657   270A      3.762592  
     271A      3.784654   272A      3.800163   273A      3.822323  
     274A      3.832746   275A      3.837348   276A      3.851291  
     277A      3.853117   278A      3.865488   279A      3.880420  
     280A      3.889745   281A      3.891151   282A      3.909906  
     283A      3.937061   284A      3.939116   285A      3.947496  
     286A      3.963499   287A      3.978787   288A      4.001959  
     289A      4.028398   290A      4.044178   291A      4.065961  
     292A      4.086937   293A      4.101479   294A      4.113437  
     295A      4.137197   296A      4.149915   297A      4.166071  
     298A      4.179862   299A      4.189659   300A      4.209634  
     301A      4.221716   302A      4.239439   303A      4.248979  
     304A      4.262467   305A      4.285204   306A      4.295599  
     307A      4.325762   308A      4.336090   309A      4.354507  
     310A      4.369106   311A      4.382558   312A      4.412696  
     313A      4.418527   314A      4.421919   315A      4.441968  
     316A      4.474598   317A      4.502717   318A      4.507150  
     319A      4.512127   320A      4.535476   321A      4.539342  
     322A      4.567417   323A      4.582920   324A      4.589525  
     325A      4.599277   326A      4.601891   327A      4.615925  
     328A      4.624943   329A      4.636831   330A      4.651688  
     331A      4.658735   332A      4.669508   333A      4.674342  
     334A      4.696162   335A      4.706368   336A      4.720172  
     337A      4.726200   338A      4.744258   339A      4.764402  
     340A      4.774765   341A      4.788313   342A      4.797915  
     343A      4.802779   344A      4.818691   345A      4.832255  
     346A      4.837031   347A      4.848752   348A      4.867407  
     349A      4.876667   350A      4.883529   351A      4.897371  
     352A      4.903511   353A      4.915972   354A      4.935594  
     355A      4.940999   356A      4.954472   357A      4.958792  
     358A      4.978122   359A      4.981357   360A      4.994604  
     361A      5.009572   362A      5.018194   363A      5.029450  
     364A      5.043860   365A      5.049756   366A      5.068311  
     367A      5.088321   368A      5.120976   369A      5.125906  
     370A      5.139589   371A      5.163026   372A      5.174165  
     373A      5.184008   374A      5.196187   375A      5.227754  
     376A      5.249328   377A      5.280646   378A      5.295261  
     379A      5.322698   380A      5.341648   381A      5.364487  
     382A      5.393529   383A      5.426862   384A      5.459603  
     385A      5.474364   386A      5.482475   387A      5.557797  
     388A      5.614892   389A      5.620298   390A      5.645094  
     391A      5.658485   392A      5.665588   393A      5.666805  
     394A      5.685251   395A      5.688505   396A      5.727806  
     397A      5.777263   398A      5.787232   399A      5.848512  
     400A      5.864706   401A      5.876333   402A      5.933838  
     403A      5.958300   404A      5.994171   405A      6.001775  
     406A      6.049043   407A      6.057519   408A      6.062380  
     409A      6.075361   410A      6.106857   411A      6.183162  
     412A      6.200126   413A      6.237469   414A      6.252729  
     415A      6.288045   416A      6.320398   417A      6.354755  
     418A      6.390814   419A      6.417068   420A      6.450705  
     421A      6.465279   422A      6.502644   423A      6.521703  
     424A      6.647179   425A      6.685330   426A      6.738557  
     427A      6.746013   428A      6.792279   429A      6.825135  
     430A      6.845047   431A      6.932123   432A      6.939027  
     433A      6.982326   434A      7.023415   435A      7.103030  
     436A      7.132990   437A      7.203108   438A      7.234596  
     439A      7.259598   440A      7.315721   441A      7.332251  
     442A      7.379016   443A      7.400214   444A      7.440247  
     445A      7.463732   446A      7.481666   447A      7.547652  
     448A      7.587148   449A      7.610007   450A      7.651980  
     451A      7.681296   452A      7.700508   453A      7.725481  
     454A      7.740811   455A      7.783546   456A      7.824653  
     457A      7.885155   458A      7.907564   459A      7.951216  
     460A      7.963214   461A      8.051541   462A      8.125320  
     463A      8.160375   464A      8.287071   465A      8.386518  
     466A      8.614404   467A      8.871632   468A      9.478402  
     469A      9.640814   470A      9.778191   471A      9.903351  
     472A     10.207236   473A     12.780351   474A     13.838414  
     475A     14.688422   476A     41.718319   477A     44.120436  
     478A     45.538293   479A     45.910732   480A     47.210713  

    Final Occupation by Irrep:
              A 
    DOCC [    12 ]

  @DF-RHF Final Energy:  -188.84247120964494

   => Energetics <=

    Nuclear Repulsion Energy =             70.0053625430618922
    One-Electron Energy =                -397.6928155523321493
    Two-Electron Energy =                 138.8449817996253159
    Total Energy =                       -188.8424712096449412

Computation Completed


Properties will be evaluated at   0.000000,   0.000000,   0.000000 [a0]

Properties computed using the SCF density matrix

  Nuclear Dipole Moment: [e a0]
     X:   -79.8989      Y:   -39.4991      Z:    -1.0360

  Electronic Dipole Moment: [e a0]
     X:    79.5853      Y:    39.7265      Z:     0.4270

  Dipole Moment: [e a0]
     X:    -0.3136      Y:     0.2273      Z:    -0.6090     Total:     0.7217

  Dipole Moment: [D]
     X:    -0.7971      Y:     0.5778      Z:    -1.5479     Total:     1.8345


*** tstop() called on r282 at Sat Sep 11 00:13:15 2021
Module time:
	user time   =      35.16 seconds =       0.59 minutes
	system time =       0.56 seconds =       0.01 minutes
	total time  =         36 seconds =       0.60 minutes
Total time:
	user time   =      93.16 seconds =       1.55 minutes
	system time =       1.86 seconds =       0.03 minutes
	total time  =         95 seconds =       1.58 minutes

  //>>>>>>>>>>>>>>>>>>>>>>>>>>>>>>>>>>>//
  //            Monomer B HF           //
  //<<<<<<<<<<<<<<<<<<<<<<<<<<<<<<<<<<<//


*** tstart() called on r282
*** at Sat Sep 11 00:13:15 2021

   => Loading Basis Set <=

    Name: JUN-CC-PVTZ
    Role: ORBITAL
    Keyword: BASIS
    atoms 1, 6-10    entry C          line   217 file /home/r08543048/miniconda3/share/psi4/basis/jun-cc-pvtz.gbs 
    atoms 2-3        entry O          line   305 file /home/r08543048/miniconda3/share/psi4/basis/jun-cc-pvtz.gbs 
    atoms 4-5, 11-20 entry H          line    36 file /home/r08543048/miniconda3/share/psi4/basis/jun-cc-pvtz.gbs 


         ---------------------------------------------------------
                                   SCF
               by Justin Turney, Rob Parrish, Andy Simmonett
                          and Daniel G. A. Smith
                              RHF Reference
                        1 Threads,  20980 MiB Core
         ---------------------------------------------------------

  ==> Geometry <==

    Molecular point group: c1
    Full point group: C1

    Geometry (in Angstrom), charge = 0, multiplicity = 1:

       Center              X                  Y                   Z               Mass       
    ------------   -----------------  -----------------  -----------------  -----------------
      Gh(C)          -1.963723739342    -1.236736999181    -0.016256298736    12.000000000000
      Gh(O)          -2.038029739342    -0.244105999181    -0.911918298736    15.994914619570
      Gh(O)          -1.265947739342    -1.243506999181     0.971254701264    15.994914619570
      Gh(H)          -2.629453739342    -2.053365999181    -0.309153298736     1.007825032230
      Gh(H)          -1.437071739342     0.472651000819    -0.616220298736     1.007825032230
         C           -0.598800739342     2.287908000819     0.375538701264    12.000000000000
         C            0.540524260658     1.844247000819    -0.173245298736    12.000000000000
         C            1.398565260658     0.763908000819     0.401573701264    12.000000000000
         C            1.710825260658    -0.337481999181    -0.612102298736    12.000000000000
         C            2.543380260658    -1.451651999181     0.007862701264    12.000000000000
         H           -0.961899739342     1.873228000819     1.308351701264     1.007825032230
         H           -1.172510739342     3.081990000819    -0.083012298736     1.007825032230
         H            0.877619260658     2.290523000819    -1.105619298736     1.007825032230
         H            2.344220260658     1.200937000819     0.738989701264     1.007825032230
         H            0.905864260658     0.331072000819     1.274474701264     1.007825032230
         H            0.776036260658    -0.749493999181    -0.997564298736     1.007825032230
         H            2.238372260658     0.097011000819    -1.465310298736     1.007825032230
         H            3.485387260658    -1.061504999181     0.395566701264     1.007825032230
         H            2.003545260658    -1.912745999181     0.835278701264     1.007825032230
         H            2.775448260658    -2.228858999181    -0.719497298736     1.007825032230

  Running in c1 symmetry.

  Rotational constants: A =      0.06424  B =      0.04454  C =      0.03083 [cm^-1]
  Rotational constants: A =   1925.88347  B =   1335.41207  C =    924.29496 [MHz]
  Nuclear repulsion =  170.317813956938778

  Charge       = 0
  Multiplicity = 1
  Electrons    = 40
  Nalpha       = 20
  Nbeta        = 20

  ==> Algorithm <==

  SCF Algorithm Type is DF.
  DIIS enabled.
  MOM disabled.
  Fractional occupation disabled.
  Guess Type is SAD.
  Energy threshold   = 1.00e-08
  Density threshold  = 1.00e-08
  Integral threshold = 0.00e+00

  ==> Primary Basis <==

  Basis Set: JUN-CC-PVTZ
    Blend: JUN-CC-PVTZ
    Number of shells: 176
    Number of basis function: 480
    Number of Cartesian functions: 540
    Spherical Harmonics?: true
    Max angular momentum: 3

   => Loading Basis Set <=

    Name: (JUN-CC-PVTZ AUX)
    Role: JKFIT
    Keyword: DF_BASIS_SCF
    atoms 1, 6-10    entry C          line   152 file /home/r08543048/miniconda3/share/psi4/basis/jun-cc-pvtz-jkfit.gbs 
    atoms 2-3        entry O          line   272 file /home/r08543048/miniconda3/share/psi4/basis/jun-cc-pvtz-jkfit.gbs 
    atoms 4-5, 11-20 entry H          line    70 file /home/r08543048/miniconda3/share/psi4/basis/jun-cc-pvtz-jkfit.gbs 

  ==> Pre-Iterations <==

   -------------------------------------------------------
    Irrep   Nso     Nmo     Nalpha   Nbeta   Ndocc  Nsocc
   -------------------------------------------------------
     A        480     480       0       0       0       0
   -------------------------------------------------------
    Total     480     480      20      20      20       0
   -------------------------------------------------------

  ==> Integral Setup <==

  ==> DiskDFJK: Density-Fitted J/K Matrices <==

    J tasked:                  Yes
    K tasked:                  Yes
    wK tasked:                  No
    OpenMP threads:              1
    Integrals threads:           1
    Memory [MiB]:            15735
    Algorithm:                Core
    Integral Cache:           LOAD
    Schwarz Cutoff:          1E-12
    Fitting Condition:       1E-10

   => Auxiliary Basis Set <=

  Basis Set: (JUN-CC-PVTZ AUX)
    Blend: JUN-CC-PVTZ-JKFIT
    Number of shells: 352
    Number of basis function: 1120
    Number of Cartesian functions: 1348
    Spherical Harmonics?: true
    Max angular momentum: 4

  Minimum eigenvalue in the overlap matrix is 2.9026585971E-05.
  Using Symmetric Orthogonalization.

  SCF Guess: Superposition of Atomic Densities via on-the-fly atomic UHF.

  ==> Iterations <==

                           Total Energy        Delta E     RMS |[F,P]|

   @DF-RHF iter SAD:  -194.45161452227072   -1.94452e+02   0.00000e+00 
   @DF-RHF iter   1:  -194.99827862350722   -5.46664e-01   1.21469e-03 DIIS
   @DF-RHF iter   2:  -195.17537710904912   -1.77098e-01   5.30857e-04 DIIS
   @DF-RHF iter   3:  -195.20948548196466   -3.41084e-02   1.02350e-04 DIIS
   @DF-RHF iter   4:  -195.21181899785228   -2.33352e-03   3.40379e-05 DIIS
   @DF-RHF iter   5:  -195.21198418413354   -1.65186e-04   7.23076e-06 DIIS
   @DF-RHF iter   6:  -195.21199474685179   -1.05627e-05   1.62442e-06 DIIS
   @DF-RHF iter   7:  -195.21199525304237   -5.06191e-07   4.68827e-07 DIIS
   @DF-RHF iter   8:  -195.21199529864865   -4.56063e-08   1.09591e-07 DIIS
   @DF-RHF iter   9:  -195.21199530234446   -3.69582e-09   3.96356e-08 DIIS
   @DF-RHF iter  10:  -195.21199530289942   -5.54962e-10   1.32934e-08 DIIS
   @DF-RHF iter  11:  -195.21199530296354   -6.41194e-11   3.98479e-09 DIIS
  Energy and wave function converged.


  ==> Post-Iterations <==

    Orbital Energies [Eh]
    ---------------------

    Doubly Occupied:                                                      

       1A    -11.231409     2A    -11.222109     3A    -11.219491  
       4A    -11.217510     5A    -11.211514     6A     -1.089463  
       7A     -1.022045     8A     -0.922438     9A     -0.811308  
      10A     -0.757254    11A     -0.649729    12A     -0.617986  
      13A     -0.590579    14A     -0.566658    15A     -0.538663  
      16A     -0.511037    17A     -0.482313    18A     -0.475113  
      19A     -0.469436    20A     -0.354948  

    Virtual:                                                              

      21A      0.041168    22A      0.050713    23A      0.054503  
      24A      0.055829    25A      0.070609    26A      0.078483  
      27A      0.081172    28A      0.082244    29A      0.090075  
      30A      0.103931    31A      0.105840    32A      0.115353  
      33A      0.118092    34A      0.125196    35A      0.127382  
      36A      0.134663    37A      0.148530    38A      0.159189  
      39A      0.168182    40A      0.180905    41A      0.185089  
      42A      0.185544    43A      0.191616    44A      0.196527  
      45A      0.198154    46A      0.207993    47A      0.217319  
      48A      0.223435    49A      0.226225    50A      0.235242  
      51A      0.243085    52A      0.245631    53A      0.252004  
      54A      0.272515    55A      0.284551    56A      0.297322  
      57A      0.305027    58A      0.307732    59A      0.313958  
      60A      0.316956    61A      0.326264    62A      0.330456  
      63A      0.339005    64A      0.349860    65A      0.354442  
      66A      0.359345    67A      0.366784    68A      0.372491  
      69A      0.386091    70A      0.388096    71A      0.400870  
      72A      0.404466    73A      0.407284    74A      0.410828  
      75A      0.419708    76A      0.428715    77A      0.430267  
      78A      0.437909    79A      0.447101    80A      0.450550  
      81A      0.456911    82A      0.471339    83A      0.473665  
      84A      0.489651    85A      0.494226    86A      0.508958  
      87A      0.511863    88A      0.520396    89A      0.528763  
      90A      0.536467    91A      0.543264    92A      0.545662  
      93A      0.548509    94A      0.560511    95A      0.571508  
      96A      0.578417    97A      0.586354    98A      0.596361  
      99A      0.601283   100A      0.621860   101A      0.631356  
     102A      0.635982   103A      0.663092   104A      0.677685  
     105A      0.697347   106A      0.706624   107A      0.725021  
     108A      0.729355   109A      0.736326   110A      0.750781  
     111A      0.762742   112A      0.776187   113A      0.778632  
     114A      0.782715   115A      0.794709   116A      0.805766  
     117A      0.818752   118A      0.830274   119A      0.833536  
     120A      0.839516   121A      0.851722   122A      0.856299  
     123A      0.864251   124A      0.872925   125A      0.885856  
     126A      0.891614   127A      0.899293   128A      0.904625  
     129A      0.913876   130A      0.929665   131A      0.934622  
     132A      0.949591   133A      0.958105   134A      0.972480  
     135A      0.978460   136A      0.989509   137A      0.992548  
     138A      1.001372   139A      1.014487   140A      1.026444  
     141A      1.031580   142A      1.046024   143A      1.051186  
     144A      1.066507   145A      1.077543   146A      1.084105  
     147A      1.104881   148A      1.111045   149A      1.121288  
     150A      1.127117   151A      1.142420   152A      1.162082  
     153A      1.175917   154A      1.184044   155A      1.222734  
     156A      1.234943   157A      1.240077   158A      1.246481  
     159A      1.260218   160A      1.260386   161A      1.284372  
     162A      1.290258   163A      1.298634   164A      1.314130  
     165A      1.327449   166A      1.357031   167A      1.359597  
     168A      1.371677   169A      1.385359   170A      1.399058  
     171A      1.403436   172A      1.417892   173A      1.430168  
     174A      1.443897   175A      1.460663   176A      1.470005  
     177A      1.472576   178A      1.489808   179A      1.505850  
     180A      1.528365   181A      1.541782   182A      1.553726  
     183A      1.556904   184A      1.563379   185A      1.577870  
     186A      1.588197   187A      1.593128   188A      1.606213  
     189A      1.614688   190A      1.631147   191A      1.652711  
     192A      1.660083   193A      1.677758   194A      1.690079  
     195A      1.706899   196A      1.722970   197A      1.734984  
     198A      1.752843   199A      1.759306   200A      1.774330  
     201A      1.779406   202A      1.793730   203A      1.798087  
     204A      1.832280   205A      1.848777   206A      1.870731  
     207A      1.891298   208A      1.897488   209A      1.905876  
     210A      1.923712   211A      1.943275   212A      1.953950  
     213A      1.967714   214A      1.985303   215A      1.999353  
     216A      2.053874   217A      2.066512   218A      2.090416  
     219A      2.140907   220A      2.154028   221A      2.196965  
     222A      2.291617   223A      2.312834   224A      2.524722  
     225A      2.575756   226A      2.661670   227A      2.688096  
     228A      2.717965   229A      2.737056   230A      2.761114  
     231A      2.774565   232A      2.789105   233A      2.801657  
     234A      2.808880   235A      2.831975   236A      2.839977  
     237A      2.848551   238A      2.856038   239A      2.870132  
     240A      2.875534   241A      2.898476   242A      2.909660  
     243A      2.932434   244A      2.948498   245A      2.966278  
     246A      2.975556   247A      2.987137   248A      3.001510  
     249A      3.004359   250A      3.022034   251A      3.030496  
     252A      3.055544   253A      3.059698   254A      3.096484  
     255A      3.111002   256A      3.122259   257A      3.135559  
     258A      3.140588   259A      3.169951   260A      3.179607  
     261A      3.194229   262A      3.201512   263A      3.216077  
     264A      3.221894   265A      3.234999   266A      3.256581  
     267A      3.270865   268A      3.292727   269A      3.300146  
     270A      3.315789   271A      3.343598   272A      3.353331  
     273A      3.359069   274A      3.375011   275A      3.380452  
     276A      3.388478   277A      3.415300   278A      3.429264  
     279A      3.433193   280A      3.456378   281A      3.470036  
     282A      3.473522   283A      3.495289   284A      3.497417  
     285A      3.509035   286A      3.528113   287A      3.534645  
     288A      3.542075   289A      3.550269   290A      3.571542  
     291A      3.579037   292A      3.589627   293A      3.594745  
     294A      3.605551   295A      3.623899   296A      3.630269  
     297A      3.662487   298A      3.683798   299A      3.686134  
     300A      3.712264   301A      3.724956   302A      3.745091  
     303A      3.757097   304A      3.763969   305A      3.768902  
     306A      3.812554   307A      3.814512   308A      3.828917  
     309A      3.851283   310A      3.866796   311A      3.872052  
     312A      3.873990   313A      3.923772   314A      3.941477  
     315A      3.955063   316A      3.971452   317A      3.988249  
     318A      4.017472   319A      4.021614   320A      4.028558  
     321A      4.050098   322A      4.059665   323A      4.077631  
     324A      4.108993   325A      4.146154   326A      4.155538  
     327A      4.175514   328A      4.194395   329A      4.205480  
     330A      4.214660   331A      4.236544   332A      4.255491  
     333A      4.261872   334A      4.272534   335A      4.311966  
     336A      4.328247   337A      4.332069   338A      4.344691  
     339A      4.356611   340A      4.360557   341A      4.372822  
     342A      4.383243   343A      4.391524   344A      4.408762  
     345A      4.434783   346A      4.437105   347A      4.441455  
     348A      4.447339   349A      4.470541   350A      4.481934  
     351A      4.499692   352A      4.506622   353A      4.508571  
     354A      4.522801   355A      4.542123   356A      4.548233  
     357A      4.572938   358A      4.583718   359A      4.593925  
     360A      4.615733   361A      4.622948   362A      4.639874  
     363A      4.668163   364A      4.690858   365A      4.713477  
     366A      4.745512   367A      4.753625   368A      4.759238  
     369A      4.767813   370A      4.797109   371A      4.806681  
     372A      4.819565   373A      4.844190   374A      4.850454  
     375A      4.870247   376A      4.903477   377A      4.913225  
     378A      4.959215   379A      4.975279   380A      4.988912  
     381A      5.010631   382A      5.038233   383A      5.040893  
     384A      5.065302   385A      5.067617   386A      5.120095  
     387A      5.134171   388A      5.156763   389A      5.184379  
     390A      5.192406   391A      5.201708   392A      5.223317  
     393A      5.259428   394A      5.266952   395A      5.285811  
     396A      5.290790   397A      5.298309   398A      5.347536  
     399A      5.385663   400A      5.389816   401A      5.414807  
     402A      5.440984   403A      5.450586   404A      5.462861  
     405A      5.491476   406A      5.523621   407A      5.565700  
     408A      5.612875   409A      5.628721   410A      5.651313  
     411A      5.663881   412A      5.723869   413A      5.753791  
     414A      5.756700   415A      5.778215   416A      5.794678  
     417A      5.819161   418A      5.874981   419A      5.926984  
     420A      5.941133   421A      5.959607   422A      5.965646  
     423A      6.005407   424A      6.027448   425A      6.134224  
     426A      6.161411   427A      6.212963   428A      6.234241  
     429A      6.315609   430A      6.414954   431A      6.458781  
     432A      6.482203   433A      6.497725   434A      6.502973  
     435A      6.515443   436A      6.547039   437A      6.604210  
     438A      6.625586   439A      6.709044   440A      6.752549  
     441A      6.809907   442A      7.033332   443A      7.154892  
     444A      7.189517   445A      7.491846   446A      7.530796  
     447A      7.681153   448A      7.838423   449A      7.979685  
     450A      8.018631   451A      8.438026   452A      8.641643  
     453A      8.883312   454A      9.390213   455A      9.520104  
     456A      9.694433   457A      9.808054   458A      9.856772  
     459A      9.873778   460A      9.933445   461A      9.950675  
     462A     10.026596   463A     10.277001   464A     10.469588  
     465A     11.011253   466A     11.393946   467A     11.564974  
     468A     11.619277   469A     11.944723   470A     12.610020  
     471A     13.036400   472A     13.589144   473A     13.845832  
     474A     13.896060   475A     14.420813   476A     14.581618  
     477A     15.376050   478A     44.966864   479A     60.530118  
     480A     61.485944  

    Final Occupation by Irrep:
              A 
    DOCC [    20 ]

  @DF-RHF Final Energy:  -195.21199530296354

   => Energetics <=

    Nuclear Repulsion Energy =            170.3178139569387781
    One-Electron Energy =                -599.1376085654667349
    Two-Electron Energy =                 233.6077993055644129
    Total Energy =                       -195.2119953029635440

Computation Completed


Properties will be evaluated at   0.000000,   0.000000,   0.000000 [a0]

Properties computed using the SCF density matrix

  Nuclear Dipole Moment: [e a0]
     X:    88.5130      Y:    40.7495      Z:     0.3391

  Electronic Dipole Moment: [e a0]
     X:   -88.3682      Y:   -40.8608      Z:    -0.3715

  Dipole Moment: [e a0]
     X:     0.1448      Y:    -0.1113      Z:    -0.0324     Total:     0.1855

  Dipole Moment: [D]
     X:     0.3680      Y:    -0.2829      Z:    -0.0824     Total:     0.4714


*** tstop() called on r282 at Sat Sep 11 00:13:53 2021
Module time:
	user time   =      37.49 seconds =       0.62 minutes
	system time =       0.67 seconds =       0.01 minutes
	total time  =         38 seconds =       0.63 minutes
Total time:
	user time   =     130.65 seconds =       2.18 minutes
	system time =       2.53 seconds =       0.04 minutes
	total time  =        133 seconds =       2.22 minutes
  Constructing Basis Sets for SAPT...

   => Loading Basis Set <=

    Name: (JUN-CC-PVTZ AUX)
    Role: RIFIT
    Keyword: DF_BASIS_SAPT
    atoms 1, 6-10    entry C          line   132 file /home/r08543048/miniconda3/share/psi4/basis/jun-cc-pvtz-ri.gbs 
    atoms 2-3        entry O          line   244 file /home/r08543048/miniconda3/share/psi4/basis/jun-cc-pvtz-ri.gbs 
    atoms 4-5, 11-20 entry H          line    30 file /home/r08543048/miniconda3/share/psi4/basis/jun-cc-pvtz-ri.gbs 


  //>>>>>>>>>>>>>>>>>>>>>>>>>>>>>>>>>>>//
  //               SAPT0               //
  //<<<<<<<<<<<<<<<<<<<<<<<<<<<<<<<<<<<//


*** tstart() called on r282
*** at Sat Sep 11 00:13:53 2021

        SAPT0  
    Ed Hohenstein
     6 June 2009

      Orbital Information
  --------------------------
    NSO        =       480
    NMO        =       480
    NRI        =      1136
    NOCC A     =        12
    NOCC B     =        20
    FOCC A     =         0
    FOCC B     =         0
    NVIR A     =       468
    NVIR B     =       460

    Elst10,r            =    -0.013302792412 [Eh]
    Exch10              =     0.017470494450 [Eh]
    Exch10 (S^2)        =     0.017319630737 [Eh]

    Iter     Energy [mEh]          dE [mEh]         Residual      Time [s]
       1      -1.04565713       1.045657126       4.690951990             1
       2      -1.25739698       0.211739853       1.840767075             1
       3      -1.27336168       0.015964701       0.605963340             2
       4      -1.26852379      -0.004837893       0.274024763             3
       5      -1.26689288      -0.001630907       0.103964416             4
       6      -1.26732039       0.000427507       0.044437050             5
       7      -1.26768755       0.000367161       0.009362394             6
       8      -1.26757831      -0.000109238       0.002028622             6
       9      -1.26758819       0.000009876       0.000780891             7
      10      -1.26758965       0.000001465       0.000286491             8
      11      -1.26758809      -0.000001564       0.000097698             9
      12      -1.26758832       0.000000237       0.000032661             9
      13      -1.26758843       0.000000105       0.000007362            10
      14      -1.26758840      -0.000000027       0.000001617            11
      15      -1.26758840      -0.000000000       0.000000428            12

    CHF Iterations converged


    Iter     Energy [mEh]          dE [mEh]         Residual      Time [s]
       1      -7.56602601       7.566026006      15.841029524             1
       2      -9.41630556       1.850279551       6.365882835             1
       3      -9.73060133       0.314295776       1.673800681             2
       4      -9.68979812      -0.040803219       0.611430055             3
       5      -9.66907434      -0.020723776       0.198027017             4
       6      -9.67220968       0.003135338       0.084548189             5
       7      -9.67426384       0.002054160       0.021904173             6
       8      -9.67380004      -0.000463795       0.005912357             7
       9      -9.67373572      -0.000064318       0.001679736             8
      10      -9.67375542       0.000019699       0.000474486             8
      11      -9.67376057       0.000005142       0.000125068             9
      12      -9.67375891      -0.000001653       0.000029692            10
      13      -9.67375874      -0.000000173       0.000008157            11
      14      -9.67375884       0.000000097       0.000002781            12
      15      -9.67375884       0.000000008       0.000000957            13

    CHF Iterations converged

    Ind20,r (A<-B)      =    -0.001267588403 [Eh]
    Ind20,r (B<-A)      =    -0.009673758844 [Eh]
    Ind20,r             =    -0.010941347247 [Eh]
    Exch-Ind20,r (A<-B) =     0.001031325313 [Eh]
    Exch-Ind20,r (B<-A) =     0.006397066279 [Eh]
    Exch-Ind20,r        =     0.007428391591 [Eh]
    Disp20              =    -0.011250964888 [Eh]
    Disp20 (SS)         =    -0.005625482444 [Eh]
    Disp20 (OS)         =    -0.005625482444 [Eh]
    Exch-Disp20         =     0.001616877822 [Eh]
    Exch-Disp20 (SS)    =     0.001045082237 [Eh]
    Exch-Disp20 (OS)    =     0.000571795585 [Eh]

    SAPT Results 
  --------------------------------------------------------------------------------------------------------
    Electrostatics                -13.30279241 [mEh]      -8.34762827 [kcal/mol]     -34.92647667 [kJ/mol]
      Elst10,r                    -13.30279241 [mEh]      -8.34762827 [kcal/mol]     -34.92647667 [kJ/mol]

    Exchange                       17.47049445 [mEh]      10.96290078 [kcal/mol]      45.86877686 [kJ/mol]
      Exch10                       17.47049445 [mEh]      10.96290078 [kcal/mol]      45.86877686 [kJ/mol]
      Exch10(S^2)                  17.31963074 [mEh]      10.86823237 [kcal/mol]      45.47268423 [kJ/mol]

    Induction                      -6.06224467 [mEh]      -3.80411596 [kcal/mol]     -15.91642118 [kJ/mol]
      Ind20,r                     -10.94134725 [mEh]      -6.86579905 [kcal/mol]     -28.72650324 [kJ/mol]
      Exch-Ind20,r                  7.42839159 [mEh]       4.66138610 [kcal/mol]      19.50323944 [kJ/mol]
      delta HF,r (2)               -2.54928901 [mEh]      -1.59970300 [kcal/mol]      -6.69315737 [kJ/mol]

    Dispersion                     -9.63408707 [mEh]      -6.04548090 [kcal/mol]     -25.29429211 [kJ/mol]
      Disp20                      -11.25096489 [mEh]      -7.06008706 [kcal/mol]     -29.53940424 [kJ/mol]
      Exch-Disp20                   1.61687782 [mEh]       1.01460615 [kcal/mol]       4.24511214 [kJ/mol]
      Disp20 (SS)                  -5.62548244 [mEh]      -3.53004353 [kcal/mol]     -14.76970212 [kJ/mol]
      Disp20 (OS)                  -5.62548244 [mEh]      -3.53004353 [kcal/mol]     -14.76970212 [kJ/mol]
      Exch-Disp20 (SS)              1.04508224 [mEh]       0.65579900 [kcal/mol]       2.74386303 [kJ/mol]
      Exch-Disp20 (OS)              0.57179559 [mEh]       0.35880715 [kcal/mol]       1.50124910 [kJ/mol]

  Total HF                         -1.89454263 [mEh]      -1.18884345 [kcal/mol]      -4.97412098 [kJ/mol]
  Total SAPT0                     -11.52862969 [mEh]      -7.23432435 [kcal/mol]     -30.26841309 [kJ/mol]

  Special recipe for scaled SAPT0 (see Manual):
    Electrostatics sSAPT0         -13.30279241 [mEh]      -8.34762827 [kcal/mol]     -34.92647667 [kJ/mol]
    Exchange sSAPT0                17.47049445 [mEh]      10.96290078 [kcal/mol]      45.86877686 [kJ/mol]
    Induction sSAPT0               -5.86643250 [mEh]      -3.68124197 [kcal/mol]     -15.40231641 [kJ/mol]
    Dispersion sSAPT0              -9.59146622 [mEh]      -6.01873592 [kcal/mol]     -25.18239109 [kJ/mol]
  Total sSAPT0                    -11.29019668 [mEh]      -7.08470538 [kcal/mol]     -29.64240731 [kJ/mol]
  --------------------------------------------------------------------------------------------------------

*** tstop() called on r282 at Sat Sep 11 00:15:38 2021
Module time:
	user time   =      87.00 seconds =       1.45 minutes
	system time =      16.26 seconds =       0.27 minutes
	total time  =        105 seconds =       1.75 minutes
Total time:
	user time   =     217.78 seconds =       3.63 minutes
	system time =      18.79 seconds =       0.31 minutes
	total time  =        238 seconds =       3.97 minutes

    Psi4 stopped on: Saturday, 11 September 2021 12:15AM
    Psi4 wall time for execution: 0:03:57.96

*** Psi4 exiting successfully. Buy a developer a beer!
