
    -----------------------------------------------------------------------
          Psi4: An Open-Source Ab Initio Electronic Structure Package
                               Psi4 1.3.2 release

                         Git: Rev {HEAD} ecbda83 


    R. M. Parrish, L. A. Burns, D. G. A. Smith, A. C. Simmonett,
    A. E. DePrince III, E. G. Hohenstein, U. Bozkaya, A. Yu. Sokolov,
    R. Di Remigio, R. M. Richard, J. F. Gonthier, A. M. James,
    H. R. McAlexander, A. Kumar, M. Saitow, X. Wang, B. P. Pritchard,
    P. Verma, H. F. Schaefer III, K. Patkowski, R. A. King, E. F. Valeev,
    F. A. Evangelista, J. M. Turney, T. D. Crawford, and C. D. Sherrill,
    J. Chem. Theory Comput. 13(7) pp 3185--3197 (2017).
    (doi: 10.1021/acs.jctc.7b00174)


                         Additional Contributions by
    P. Kraus, H. Kruse, M. H. Lechner, M. C. Schieber, R. A. Shaw,
    A. Alenaizan, R. Galvelis, Z. L. Glick, S. Lehtola, and J. P. Misiewicz

    -----------------------------------------------------------------------


    Psi4 started on: Saturday, 11 September 2021 12:26AM

    Process ID: 57379
    Host:       r282
    PSIDATADIR: /home/r08543048/miniconda3/share/psi4
    Memory:     500.0 MiB
    Threads:    1
    
  ==> Input File <==

--------------------------------------------------------------------------
# Any line starting with the # character is a comment line
#! Sample  computation

memory 22 gb

molecule Dimer {
0 1
 C  -1.945795   -0.086261    0.141274
 O  -1.259661   -0.315080    1.115975
 O  -1.596990    0.801432   -0.813961
 H  -0.734398    1.184493   -0.553946
 C  -3.260898   -0.734853   -0.170417
 H  -3.519378   -1.431676    0.618631
 H  -4.029843    0.029051   -0.267743
 H  -3.191330   -1.254321   -1.124428



  
  
  
  
  
  
    
    
 --
0 1
 C   0.915808    2.444344    0.315953
 C   1.695191    1.506969   -0.240332
 C   1.969664    0.164739    0.357100
 C   1.675356   -0.979150   -0.614108
 C   1.905575   -2.338167    0.033257
 H   0.435550    2.268527    1.271074
 H   0.760761    3.402743   -0.160937
 H   2.165392    1.720776   -1.197079
 H   3.024666    0.110290    0.645594
 H   1.372352    0.039327    1.262213
 H   0.640513   -0.905355   -0.954500
 H   2.306522   -0.871842   -1.500307
 H   2.936060   -2.433739    0.378210
 H   1.248948   -2.462944    0.894674
 H   1.707983   -3.151874   -0.663928




units angstrom

no_reorient
symmetry c1
}

set globals{
  basis jun-cc-pvtz
}

energy('sapt0')


--------------------------------------------------------------------------

  Memory set to  20.489 GiB by Python driver.

  //>>>>>>>>>>>>>>>>>>>>>>>>>>>>>>>>>>>//
  //              Dimer HF             //
  //<<<<<<<<<<<<<<<<<<<<<<<<<<<<<<<<<<<//


*** tstart() called on r282
*** at Sat Sep 11 00:26:23 2021

   => Loading Basis Set <=

    Name: JUN-CC-PVTZ
    Role: ORBITAL
    Keyword: BASIS
    atoms 1, 5, 9-13    entry C          line   217 file /home/r08543048/miniconda3/share/psi4/basis/jun-cc-pvtz.gbs 
    atoms 2-3           entry O          line   305 file /home/r08543048/miniconda3/share/psi4/basis/jun-cc-pvtz.gbs 
    atoms 4, 6-8, 14-23 entry H          line    36 file /home/r08543048/miniconda3/share/psi4/basis/jun-cc-pvtz.gbs 


         ---------------------------------------------------------
                                   SCF
               by Justin Turney, Rob Parrish, Andy Simmonett
                          and Daniel G. A. Smith
                              RHF Reference
                        1 Threads,  20980 MiB Core
         ---------------------------------------------------------

  ==> Geometry <==

    Molecular point group: c1
    Full point group: C1

    Geometry (in Angstrom), charge = 0, multiplicity = 1:

       Center              X                  Y                   Z               Mass       
    ------------   -----------------  -----------------  -----------------  -----------------
         C           -1.906831055894    -0.114890434253     0.130971437374    12.000000000000
         O           -1.220697055894    -0.343709434253     1.105672437374    15.994914619570
         O           -1.558026055894     0.772802565747    -0.824263562626    15.994914619570
         H           -0.695434055894     1.155863565747    -0.564248562626     1.007825032230
         C           -3.221934055894    -0.763482434253    -0.180719562626    12.000000000000
         H           -3.480414055894    -1.460305434253     0.608328437374     1.007825032230
         H           -3.990879055894     0.000421565747    -0.278045562626     1.007825032230
         H           -3.152366055894    -1.282950434253    -1.134730562626     1.007825032230
         C            0.954771944106     2.415714565747     0.305650437374    12.000000000000
         C            1.734154944106     1.478339565747    -0.250634562626    12.000000000000
         C            2.008627944106     0.136109565747     0.346797437374    12.000000000000
         C            1.714319944106    -1.007779434253    -0.624410562626    12.000000000000
         C            1.944538944106    -2.366796434253     0.022954437374    12.000000000000
         H            0.474513944106     2.239897565747     1.260771437374     1.007825032230
         H            0.799724944106     3.374113565747    -0.171239562626     1.007825032230
         H            2.204355944106     1.692146565747    -1.207381562626     1.007825032230
         H            3.063629944106     0.081660565747     0.635291437374     1.007825032230
         H            1.411315944106     0.010697565747     1.251910437374     1.007825032230
         H            0.679476944106    -0.933984434253    -0.964802562626     1.007825032230
         H            2.345485944106    -0.900471434253    -1.510609562626     1.007825032230
         H            2.975023944106    -2.462368434253     0.367907437374     1.007825032230
         H            1.287911944106    -2.491573434253     0.884371437374     1.007825032230
         H            1.746946944106    -3.180503434253    -0.674230562626     1.007825032230

  Running in c1 symmetry.

  Rotational constants: A =      0.05732  B =      0.03160  C =      0.02322 [cm^-1]
  Rotational constants: A =   1718.49635  B =    947.40005  C =    696.16105 [MHz]
  Nuclear repulsion =  456.366750426524618

  Charge       = 0
  Multiplicity = 1
  Electrons    = 72
  Nalpha       = 36
  Nbeta        = 36

  ==> Algorithm <==

  SCF Algorithm Type is DF.
  DIIS enabled.
  MOM disabled.
  Fractional occupation disabled.
  Guess Type is SAD.
  Energy threshold   = 1.00e-08
  Density threshold  = 1.00e-08
  Integral threshold = 0.00e+00

  ==> Primary Basis <==

  Basis Set: JUN-CC-PVTZ
    Blend: JUN-CC-PVTZ
    Number of shells: 201
    Number of basis function: 547
    Number of Cartesian functions: 615
    Spherical Harmonics?: true
    Max angular momentum: 3

   => Loading Basis Set <=

    Name: (JUN-CC-PVTZ AUX)
    Role: JKFIT
    Keyword: DF_BASIS_SCF
    atoms 1, 5, 9-13    entry C          line   152 file /home/r08543048/miniconda3/share/psi4/basis/jun-cc-pvtz-jkfit.gbs 
    atoms 2-3           entry O          line   272 file /home/r08543048/miniconda3/share/psi4/basis/jun-cc-pvtz-jkfit.gbs 
    atoms 4, 6-8, 14-23 entry H          line    70 file /home/r08543048/miniconda3/share/psi4/basis/jun-cc-pvtz-jkfit.gbs 

  ==> Pre-Iterations <==

   -------------------------------------------------------
    Irrep   Nso     Nmo     Nalpha   Nbeta   Ndocc  Nsocc
   -------------------------------------------------------
     A        547     547       0       0       0       0
   -------------------------------------------------------
    Total     547     547      36      36      36       0
   -------------------------------------------------------

  ==> Integral Setup <==

  ==> DiskDFJK: Density-Fitted J/K Matrices <==

    J tasked:                  Yes
    K tasked:                  Yes
    wK tasked:                  No
    OpenMP threads:              1
    Integrals threads:           1
    Memory [MiB]:            15735
    Algorithm:                Core
    Integral Cache:           SAVE
    Schwarz Cutoff:          1E-12
    Fitting Condition:       1E-10

   => Auxiliary Basis Set <=

  Basis Set: (JUN-CC-PVTZ AUX)
    Blend: JUN-CC-PVTZ-JKFIT
    Number of shells: 401
    Number of basis function: 1275
    Number of Cartesian functions: 1534
    Spherical Harmonics?: true
    Max angular momentum: 4

  Minimum eigenvalue in the overlap matrix is 2.8399189974E-05.
  Using Symmetric Orthogonalization.

  SCF Guess: Superposition of Atomic Densities via on-the-fly atomic UHF.

  ==> Iterations <==

                           Total Energy        Delta E     RMS |[F,P]|

   @DF-RHF iter SAD:  -421.64759804075896   -4.21648e+02   0.00000e+00 
   @DF-RHF iter   1:  -422.75840646292016   -1.11081e+00   1.50100e-03 DIIS
   @DF-RHF iter   2:  -423.03932671204973   -2.80920e-01   7.93910e-04 DIIS
   @DF-RHF iter   3:  -423.11139518301201   -7.20685e-02   1.64157e-04 DIIS
   @DF-RHF iter   4:  -423.11626762234124   -4.87244e-03   7.40505e-05 DIIS
   @DF-RHF iter   5:  -423.11718863801906   -9.21016e-04   1.40328e-05 DIIS
   @DF-RHF iter   6:  -423.11724038545714   -5.17474e-05   6.82203e-06 DIIS
   @DF-RHF iter   7:  -423.11725173779178   -1.13523e-05   2.10175e-06 DIIS
   @DF-RHF iter   8:  -423.11725371342152   -1.97563e-06   8.57684e-07 DIIS
   @DF-RHF iter   9:  -423.11725402275476   -3.09333e-07   2.55279e-07 DIIS
   @DF-RHF iter  10:  -423.11725405077357   -2.80188e-08   6.36809e-08 DIIS
   @DF-RHF iter  11:  -423.11725405225985   -1.48628e-09   1.95049e-08 DIIS
   @DF-RHF iter  12:  -423.11725405238155   -1.21702e-10   5.40911e-09 DIIS
  Energy and wave function converged.


  ==> Post-Iterations <==

    Orbital Energies [Eh]
    ---------------------

    Doubly Occupied:                                                      

       1A    -20.601004     2A    -20.544457     3A    -11.384601  
       4A    -11.242768     5A    -11.240846     6A    -11.225311  
       7A    -11.219367     8A    -11.217603     9A    -11.206642  
      10A     -1.455075    11A     -1.352507    12A     -1.093143  
      13A     -1.026787    14A     -1.023407    15A     -0.923712  
      16A     -0.817027    17A     -0.809662    18A     -0.763299  
      19A     -0.700525    20A     -0.675018    21A     -0.654545  
      22A     -0.643124    23A     -0.618276    24A     -0.595138  
      25A     -0.577474    26A     -0.570345    27A     -0.564291  
      28A     -0.555703    29A     -0.537266    30A     -0.512056  
      31A     -0.480574    32A     -0.476591    33A     -0.474884  
      34A     -0.468342    35A     -0.449475    36A     -0.368074  

    Virtual:                                                              

      37A      0.043656    38A      0.052329    39A      0.053389  
      40A      0.057529    41A      0.067958    42A      0.078328  
      43A      0.080865    44A      0.084399    45A      0.089325  
      46A      0.098214    47A      0.103107    48A      0.110708  
      49A      0.119453    50A      0.120333    51A      0.126705  
      52A      0.133377    53A      0.140740    54A      0.145693  
      55A      0.151919    56A      0.160012    57A      0.165158  
      58A      0.175364    59A      0.179636    60A      0.185066  
      61A      0.195544    62A      0.198882    63A      0.200354  
      64A      0.202315    65A      0.208619    66A      0.215670  
      67A      0.221846    68A      0.236485    69A      0.248640  
      70A      0.251375    71A      0.260149    72A      0.268545  
      73A      0.279905    74A      0.282515    75A      0.293336  
      76A      0.297702    77A      0.300413    78A      0.306372  
      79A      0.308015    80A      0.319056    81A      0.322508  
      82A      0.323890    83A      0.329115    84A      0.334591  
      85A      0.337705    86A      0.343303    87A      0.349132  
      88A      0.353383    89A      0.357872    90A      0.366527  
      91A      0.369025    92A      0.378416    93A      0.387497  
      94A      0.391877    95A      0.403192    96A      0.412360  
      97A      0.414976    98A      0.417511    99A      0.419098  
     100A      0.424855   101A      0.435736   102A      0.443615  
     103A      0.451324   104A      0.455559   105A      0.463974  
     106A      0.472604   107A      0.482312   108A      0.485930  
     109A      0.498702   110A      0.505551   111A      0.513634  
     112A      0.522773   113A      0.525089   114A      0.530138  
     115A      0.538326   116A      0.543079   117A      0.548959  
     118A      0.556582   119A      0.565708   120A      0.566602  
     121A      0.579378   122A      0.593970   123A      0.598490  
     124A      0.611780   125A      0.616559   126A      0.622213  
     127A      0.631235   128A      0.637797   129A      0.654745  
     130A      0.667849   131A      0.680714   132A      0.687664  
     133A      0.690241   134A      0.701225   135A      0.708278  
     136A      0.724511   137A      0.731562   138A      0.741186  
     139A      0.746667   140A      0.754839   141A      0.756614  
     142A      0.777175   143A      0.781552   144A      0.786034  
     145A      0.793660   146A      0.800099   147A      0.817050  
     148A      0.821068   149A      0.821985   150A      0.827683  
     151A      0.829266   152A      0.841426   153A      0.852951  
     154A      0.858607   155A      0.869895   156A      0.876012  
     157A      0.881810   158A      0.886308   159A      0.889564  
     160A      0.900756   161A      0.907454   162A      0.913024  
     163A      0.927365   164A      0.933026   165A      0.941804  
     166A      0.952498   167A      0.961635   168A      0.970883  
     169A      0.983369   170A      0.992560   171A      1.009402  
     172A      1.013057   173A      1.022017   174A      1.030474  
     175A      1.049089   176A      1.060369   177A      1.069222  
     178A      1.082163   179A      1.099919   180A      1.104308  
     181A      1.113223   182A      1.121858   183A      1.133850  
     184A      1.148045   185A      1.163348   186A      1.175532  
     187A      1.181900   188A      1.192232   189A      1.194718  
     190A      1.236493   191A      1.239552   192A      1.247653  
     193A      1.255933   194A      1.265838   195A      1.272681  
     196A      1.287507   197A      1.295886   198A      1.311052  
     199A      1.322280   200A      1.327588   201A      1.332563  
     202A      1.348816   203A      1.359017   204A      1.367976  
     205A      1.377875   206A      1.388151   207A      1.397825  
     208A      1.399816   209A      1.404471   210A      1.413713  
     211A      1.425758   212A      1.439366   213A      1.450438  
     214A      1.453835   215A      1.474340   216A      1.486382  
     217A      1.495356   218A      1.503349   219A      1.520565  
     220A      1.522900   221A      1.535116   222A      1.550042  
     223A      1.554709   224A      1.559728   225A      1.563982  
     226A      1.583140   227A      1.591556   228A      1.596870  
     229A      1.598751   230A      1.604749   231A      1.624734  
     232A      1.638777   233A      1.646707   234A      1.651710  
     235A      1.663328   236A      1.666593   237A      1.688575  
     238A      1.696830   239A      1.717824   240A      1.734492  
     241A      1.744597   242A      1.760830   243A      1.770910  
     244A      1.775787   245A      1.785309   246A      1.795757  
     247A      1.811838   248A      1.829452   249A      1.853734  
     250A      1.873735   251A      1.894196   252A      1.894598  
     253A      1.914822   254A      1.937018   255A      1.937162  
     256A      1.953189   257A      1.964874   258A      1.985717  
     259A      1.996270   260A      2.005116   261A      2.059100  
     262A      2.089327   263A      2.141340   264A      2.154260  
     265A      2.244613   266A      2.266226   267A      2.290810  
     268A      2.313580   269A      2.351281   270A      2.366268  
     271A      2.438826   272A      2.456898   273A      2.493762  
     274A      2.594115   275A      2.632794   276A      2.666666  
     277A      2.749175   278A      2.759074   279A      2.770780  
     280A      2.780832   281A      2.796636   282A      2.821021  
     283A      2.830466   284A      2.836948   285A      2.850266  
     286A      2.859668   287A      2.875841   288A      2.877841  
     289A      2.899700   290A      2.906859   291A      2.939045  
     292A      2.960842   293A      2.968633   294A      2.979235  
     295A      2.994120   296A      3.003093   297A      3.008129  
     298A      3.039387   299A      3.047123   300A      3.069666  
     301A      3.079435   302A      3.100197   303A      3.107224  
     304A      3.110755   305A      3.134942   306A      3.137225  
     307A      3.150033   308A      3.166460   309A      3.170849  
     310A      3.180787   311A      3.205639   312A      3.215014  
     313A      3.216965   314A      3.220115   315A      3.226660  
     316A      3.247265   317A      3.258334   318A      3.269193  
     319A      3.280934   320A      3.295847   321A      3.317038  
     322A      3.333397   323A      3.341927   324A      3.352077  
     325A      3.361534   326A      3.376880   327A      3.391377  
     328A      3.392676   329A      3.402182   330A      3.414866  
     331A      3.422390   332A      3.425250   333A      3.437653  
     334A      3.442808   335A      3.458735   336A      3.462786  
     337A      3.477420   338A      3.487616   339A      3.496854  
     340A      3.504542   341A      3.510626   342A      3.522566  
     343A      3.528292   344A      3.537166   345A      3.550433  
     346A      3.561037   347A      3.570582   348A      3.582956  
     349A      3.587343   350A      3.599883   351A      3.605417  
     352A      3.612477   353A      3.627428   354A      3.634863  
     355A      3.661538   356A      3.678568   357A      3.680713  
     358A      3.684728   359A      3.688684   360A      3.710146  
     361A      3.735126   362A      3.739471   363A      3.764187  
     364A      3.769509   365A      3.774033   366A      3.781949  
     367A      3.788782   368A      3.791429   369A      3.798204  
     370A      3.813990   371A      3.837076   372A      3.840003  
     373A      3.842768   374A      3.851070   375A      3.864150  
     376A      3.875031   377A      3.900632   378A      3.915667  
     379A      3.943510   380A      3.959362   381A      3.977561  
     382A      3.983520   383A      3.997331   384A      4.020725  
     385A      4.028278   386A      4.046836   387A      4.060065  
     388A      4.074555   389A      4.088600   390A      4.127431  
     391A      4.150237   392A      4.158544   393A      4.178087  
     394A      4.190447   395A      4.195819   396A      4.199393  
     397A      4.220213   398A      4.232017   399A      4.246661  
     400A      4.254436   401A      4.274196   402A      4.284095  
     403A      4.308540   404A      4.313087   405A      4.324778  
     406A      4.336985   407A      4.342718   408A      4.350536  
     409A      4.370317   410A      4.372897   411A      4.383009  
     412A      4.388103   413A      4.400465   414A      4.404989  
     415A      4.414664   416A      4.424950   417A      4.444566  
     418A      4.452492   419A      4.460485   420A      4.467533  
     421A      4.491526   422A      4.495856   423A      4.506456  
     424A      4.510800   425A      4.512972   426A      4.530451  
     427A      4.553230   428A      4.566447   429A      4.585203  
     430A      4.607711   431A      4.612177   432A      4.629520  
     433A      4.648797   434A      4.651833   435A      4.670702  
     436A      4.672029   437A      4.700159   438A      4.743078  
     439A      4.748994   440A      4.755668   441A      4.772904  
     442A      4.774827   443A      4.789868   444A      4.808458  
     445A      4.821497   446A      4.830294   447A      4.852850  
     448A      4.878800   449A      4.902831   450A      4.908477  
     451A      4.928323   452A      4.957005   453A      5.008576  
     454A      5.026410   455A      5.056538   456A      5.063298  
     457A      5.076293   458A      5.100720   459A      5.134349  
     460A      5.155872   461A      5.168126   462A      5.195994  
     463A      5.198249   464A      5.208106   465A      5.240785  
     466A      5.257550   467A      5.286060   468A      5.294672  
     469A      5.303438   470A      5.315018   471A      5.348977  
     472A      5.376215   473A      5.386799   474A      5.412823  
     475A      5.435223   476A      5.441650   477A      5.452223  
     478A      5.467426   479A      5.487968   480A      5.516709  
     481A      5.520635   482A      5.564974   483A      5.573621  
     484A      5.585594   485A      5.622123   486A      5.643373  
     487A      5.655937   488A      5.659981   489A      5.668872  
     490A      5.687495   491A      5.698538   492A      5.720736  
     493A      5.741079   494A      5.760477   495A      5.784288  
     496A      5.803605   497A      5.825682   498A      5.878068  
     499A      5.897363   500A      5.899788   501A      5.911034  
     502A      5.935592   503A      5.945500   504A      5.966838  
     505A      5.999804   506A      6.023421   507A      6.071713  
     508A      6.114655   509A      6.138287   510A      6.232221  
     511A      6.294892   512A      6.418284   513A      6.424285  
     514A      6.441774   515A      6.491811   516A      6.501590  
     517A      6.522127   518A      6.539397   519A      6.598694  
     520A      6.634103   521A      6.700993   522A      6.730940  
     523A      6.796544   524A      6.980538   525A      7.014988  
     526A      7.104029   527A      7.248282   528A      7.284985  
     529A      7.297881   530A      7.362190   531A      7.400572  
     532A      7.415704   533A      7.502447   534A      7.679324  
     535A      7.771556   536A      7.859068   537A      7.978854  
     538A      8.155450   539A     12.359114   540A     12.597502  
     541A     13.817932   542A     14.066022   543A     14.415468  
     544A     14.459840   545A     14.597987   546A     14.736289  
     547A     15.369163  

    Final Occupation by Irrep:
              A 
    DOCC [    36 ]

  @DF-RHF Final Energy:  -423.11725405238155

   => Energetics <=

    Nuclear Repulsion Energy =            456.3667504265246180
    One-Electron Energy =               -1480.8301710487962737
    Two-Electron Energy =                 601.3461665698902152
    Total Energy =                       -423.1172540523815542

Computation Completed


Properties will be evaluated at   0.000000,   0.000000,   0.000000 [a0]

Properties computed using the SCF density matrix

  Nuclear Dipole Moment: [e a0]
     X:     5.3014      Y:    -3.8953      Z:    -1.4018

  Electronic Dipole Moment: [e a0]
     X:    -5.5174      Y:     3.9035      Z:     0.8578

  Dipole Moment: [e a0]
     X:    -0.2160      Y:     0.0082      Z:    -0.5440     Total:     0.5853

  Dipole Moment: [D]
     X:    -0.5490      Y:     0.0208      Z:    -1.3826     Total:     1.4878


*** tstop() called on r282 at Sat Sep 11 00:27:51 2021
Module time:
	user time   =      85.51 seconds =       1.43 minutes
	system time =       1.84 seconds =       0.03 minutes
	total time  =         88 seconds =       1.47 minutes
Total time:
	user time   =      85.51 seconds =       1.43 minutes
	system time =       1.84 seconds =       0.03 minutes
	total time  =         88 seconds =       1.47 minutes

  //>>>>>>>>>>>>>>>>>>>>>>>>>>>>>>>>>>>//
  //            Monomer A HF           //
  //<<<<<<<<<<<<<<<<<<<<<<<<<<<<<<<<<<<//


*** tstart() called on r282
*** at Sat Sep 11 00:27:51 2021

   => Loading Basis Set <=

    Name: JUN-CC-PVTZ
    Role: ORBITAL
    Keyword: BASIS
    atoms 1, 5, 9-13    entry C          line   217 file /home/r08543048/miniconda3/share/psi4/basis/jun-cc-pvtz.gbs 
    atoms 2-3           entry O          line   305 file /home/r08543048/miniconda3/share/psi4/basis/jun-cc-pvtz.gbs 
    atoms 4, 6-8, 14-23 entry H          line    36 file /home/r08543048/miniconda3/share/psi4/basis/jun-cc-pvtz.gbs 


         ---------------------------------------------------------
                                   SCF
               by Justin Turney, Rob Parrish, Andy Simmonett
                          and Daniel G. A. Smith
                              RHF Reference
                        1 Threads,  20980 MiB Core
         ---------------------------------------------------------

  ==> Geometry <==

    Molecular point group: c1
    Full point group: C1

    Geometry (in Angstrom), charge = 0, multiplicity = 1:

       Center              X                  Y                   Z               Mass       
    ------------   -----------------  -----------------  -----------------  -----------------
         C           -1.906831055894    -0.114890434253     0.130971437374    12.000000000000
         O           -1.220697055894    -0.343709434253     1.105672437374    15.994914619570
         O           -1.558026055894     0.772802565747    -0.824263562626    15.994914619570
         H           -0.695434055894     1.155863565747    -0.564248562626     1.007825032230
         C           -3.221934055894    -0.763482434253    -0.180719562626    12.000000000000
         H           -3.480414055894    -1.460305434253     0.608328437374     1.007825032230
         H           -3.990879055894     0.000421565747    -0.278045562626     1.007825032230
         H           -3.152366055894    -1.282950434253    -1.134730562626     1.007825032230
      Gh(C)           0.954771944106     2.415714565747     0.305650437374    12.000000000000
      Gh(C)           1.734154944106     1.478339565747    -0.250634562626    12.000000000000
      Gh(C)           2.008627944106     0.136109565747     0.346797437374    12.000000000000
      Gh(C)           1.714319944106    -1.007779434253    -0.624410562626    12.000000000000
      Gh(C)           1.944538944106    -2.366796434253     0.022954437374    12.000000000000
      Gh(H)           0.474513944106     2.239897565747     1.260771437374     1.007825032230
      Gh(H)           0.799724944106     3.374113565747    -0.171239562626     1.007825032230
      Gh(H)           2.204355944106     1.692146565747    -1.207381562626     1.007825032230
      Gh(H)           3.063629944106     0.081660565747     0.635291437374     1.007825032230
      Gh(H)           1.411315944106     0.010697565747     1.251910437374     1.007825032230
      Gh(H)           0.679476944106    -0.933984434253    -0.964802562626     1.007825032230
      Gh(H)           2.345485944106    -0.900471434253    -1.510609562626     1.007825032230
      Gh(H)           2.975023944106    -2.462368434253     0.367907437374     1.007825032230
      Gh(H)           1.287911944106    -2.491573434253     0.884371437374     1.007825032230
      Gh(H)           1.746946944106    -3.180503434253    -0.674230562626     1.007825032230

  Running in c1 symmetry.

  Rotational constants: A =      0.05732  B =      0.03160  C =      0.02322 [cm^-1]
  Rotational constants: A =   1718.49635  B =    947.40005  C =    696.16105 [MHz]
  Nuclear repulsion =  121.084132684063121

  Charge       = 0
  Multiplicity = 1
  Electrons    = 32
  Nalpha       = 16
  Nbeta        = 16

  ==> Algorithm <==

  SCF Algorithm Type is DF.
  DIIS enabled.
  MOM disabled.
  Fractional occupation disabled.
  Guess Type is SAD.
  Energy threshold   = 1.00e-08
  Density threshold  = 1.00e-08
  Integral threshold = 0.00e+00

  ==> Primary Basis <==

  Basis Set: JUN-CC-PVTZ
    Blend: JUN-CC-PVTZ
    Number of shells: 201
    Number of basis function: 547
    Number of Cartesian functions: 615
    Spherical Harmonics?: true
    Max angular momentum: 3

   => Loading Basis Set <=

    Name: (JUN-CC-PVTZ AUX)
    Role: JKFIT
    Keyword: DF_BASIS_SCF
    atoms 1, 5, 9-13    entry C          line   152 file /home/r08543048/miniconda3/share/psi4/basis/jun-cc-pvtz-jkfit.gbs 
    atoms 2-3           entry O          line   272 file /home/r08543048/miniconda3/share/psi4/basis/jun-cc-pvtz-jkfit.gbs 
    atoms 4, 6-8, 14-23 entry H          line    70 file /home/r08543048/miniconda3/share/psi4/basis/jun-cc-pvtz-jkfit.gbs 

  ==> Pre-Iterations <==

   -------------------------------------------------------
    Irrep   Nso     Nmo     Nalpha   Nbeta   Ndocc  Nsocc
   -------------------------------------------------------
     A        547     547       0       0       0       0
   -------------------------------------------------------
    Total     547     547      16      16      16       0
   -------------------------------------------------------

  ==> Integral Setup <==

  ==> DiskDFJK: Density-Fitted J/K Matrices <==

    J tasked:                  Yes
    K tasked:                  Yes
    wK tasked:                  No
    OpenMP threads:              1
    Integrals threads:           1
    Memory [MiB]:            15735
    Algorithm:                Core
    Integral Cache:           LOAD
    Schwarz Cutoff:          1E-12
    Fitting Condition:       1E-10

   => Auxiliary Basis Set <=

  Basis Set: (JUN-CC-PVTZ AUX)
    Blend: JUN-CC-PVTZ-JKFIT
    Number of shells: 401
    Number of basis function: 1275
    Number of Cartesian functions: 1534
    Spherical Harmonics?: true
    Max angular momentum: 4

  Minimum eigenvalue in the overlap matrix is 2.8399189974E-05.
  Using Symmetric Orthogonalization.

  SCF Guess: Superposition of Atomic Densities via on-the-fly atomic UHF.

  ==> Iterations <==

                           Total Energy        Delta E     RMS |[F,P]|

   @DF-RHF iter SAD:  -227.00035603515991   -2.27000e+02   0.00000e+00 
   @DF-RHF iter   1:  -227.74562960282947   -7.45274e-01   1.09396e-03 DIIS
   @DF-RHF iter   2:  -227.85897840024109   -1.13349e-01   6.71417e-04 DIIS
   @DF-RHF iter   3:  -227.90129930242929   -4.23209e-02   1.09179e-04 DIIS
   @DF-RHF iter   4:  -227.90351213416716   -2.21283e-03   4.98157e-05 DIIS
   @DF-RHF iter   5:  -227.90399509475660   -4.82961e-04   1.22786e-05 DIIS
   @DF-RHF iter   6:  -227.90403696661977   -4.18719e-05   5.89862e-06 DIIS
   @DF-RHF iter   7:  -227.90404757939413   -1.06128e-05   1.97038e-06 DIIS
   @DF-RHF iter   8:  -227.90404938695286   -1.80756e-06   5.25996e-07 DIIS
   @DF-RHF iter   9:  -227.90404953267557   -1.45723e-07   1.09340e-07 DIIS
   @DF-RHF iter  10:  -227.90404953786941   -5.19384e-09   2.89666e-08 DIIS
   @DF-RHF iter  11:  -227.90404953809457   -2.25157e-10   8.17170e-09 DIIS
  Energy and wave function converged.


  ==> Post-Iterations <==

    Orbital Energies [Eh]
    ---------------------

    Doubly Occupied:                                                      

       1A    -20.618369     2A    -20.551270     3A    -11.391416  
       4A    -11.246033     5A     -1.465706     6A     -1.360495  
       7A     -1.029996     8A     -0.826196     9A     -0.706431  
      10A     -0.681359    11A     -0.652668    12A     -0.584200  
      13A     -0.575339    14A     -0.563556    15A     -0.483621  
      16A     -0.456126  

    Virtual:                                                              

      17A      0.028172    18A      0.041101    19A      0.044025  
      20A      0.053397    21A      0.062266    22A      0.074213  
      23A      0.077456    24A      0.081533    25A      0.083380  
      26A      0.095799    27A      0.101465    28A      0.105500  
      29A      0.109602    30A      0.114743    31A      0.121701  
      32A      0.127197    33A      0.135748    34A      0.138729  
      35A      0.144255    36A      0.147205    37A      0.155547  
      38A      0.158585    39A      0.167238    40A      0.170592  
      41A      0.175219    42A      0.178712    43A      0.184146  
      44A      0.195070    45A      0.199527    46A      0.209417  
      47A      0.215295    48A      0.223251    49A      0.241731  
      50A      0.247059    51A      0.259738    52A      0.264127  
      53A      0.275568    54A      0.278635    55A      0.290175  
      56A      0.291121    57A      0.293890    58A      0.298122  
      59A      0.306634    60A      0.313698    61A      0.318885  
      62A      0.322862    63A      0.329301    64A      0.339309  
      65A      0.341443    66A      0.349448    67A      0.352482  
      68A      0.357186    69A      0.365460    70A      0.369894  
      71A      0.381688    72A      0.386445    73A      0.392928  
      74A      0.394145    75A      0.400690    76A      0.406057  
      77A      0.407595    78A      0.414953    79A      0.420827  
      80A      0.432720    81A      0.443101    82A      0.449777  
      83A      0.454434    84A      0.465365    85A      0.475477  
      86A      0.483219    87A      0.491270    88A      0.499937  
      89A      0.502226    90A      0.518173    91A      0.524167  
      92A      0.526843    93A      0.535357    94A      0.539756  
      95A      0.548052    96A      0.554595    97A      0.564532  
      98A      0.570010    99A      0.575551   100A      0.591187  
     101A      0.597263   102A      0.603692   103A      0.611252  
     104A      0.612552   105A      0.620912   106A      0.624646  
     107A      0.639790   108A      0.641318   109A      0.651304  
     110A      0.658807   111A      0.672956   112A      0.680664  
     113A      0.685969   114A      0.689953   115A      0.694080  
     116A      0.703587   117A      0.711112   118A      0.712578  
     119A      0.724516   120A      0.734272   121A      0.741757  
     122A      0.746053   123A      0.761063   124A      0.772507  
     125A      0.779619   126A      0.795693   127A      0.797012  
     128A      0.807377   129A      0.822581   130A      0.827958  
     131A      0.835821   132A      0.844627   133A      0.863025  
     134A      0.871770   135A      0.875881   136A      0.894970  
     137A      0.908656   138A      0.924310   139A      0.938669  
     140A      0.944369   141A      0.964661   142A      0.988486  
     143A      1.012849   144A      1.016307   145A      1.043494  
     146A      1.064702   147A      1.080332   148A      1.085836  
     149A      1.101496   150A      1.116468   151A      1.136900  
     152A      1.150203   153A      1.156948   154A      1.165082  
     155A      1.168559   156A      1.172535   157A      1.178707  
     158A      1.192386   159A      1.206972   160A      1.220888  
     161A      1.222648   162A      1.237326   163A      1.238644  
     164A      1.248549   165A      1.255411   166A      1.261617  
     167A      1.269975   168A      1.274767   169A      1.285202  
     170A      1.299638   171A      1.307630   172A      1.314286  
     173A      1.322046   174A      1.326596   175A      1.328784  
     176A      1.337858   177A      1.353197   178A      1.359788  
     179A      1.365043   180A      1.373391   181A      1.382427  
     182A      1.389650   183A      1.395675   184A      1.400273  
     185A      1.417568   186A      1.426057   187A      1.429598  
     188A      1.435251   189A      1.456341   190A      1.458200  
     191A      1.467439   192A      1.473406   193A      1.486790  
     194A      1.495465   195A      1.506012   196A      1.513594  
     197A      1.522553   198A      1.532851   199A      1.535601  
     200A      1.550553   201A      1.559932   202A      1.566215  
     203A      1.574636   204A      1.583771   205A      1.591974  
     206A      1.598306   207A      1.605982   208A      1.611991  
     209A      1.619742   210A      1.639287   211A      1.640592  
     212A      1.654390   213A      1.669498   214A      1.671819  
     215A      1.697044   216A      1.699543   217A      1.707952  
     218A      1.723867   219A      1.734391   220A      1.741842  
     221A      1.750934   222A      1.788594   223A      1.795121  
     224A      1.804919   225A      1.833506   226A      1.850968  
     227A      1.857178   228A      1.873827   229A      1.892907  
     230A      1.909850   231A      1.930726   232A      1.944927  
     233A      1.964976   234A      1.976559   235A      2.005913  
     236A      2.009202   237A      2.040739   238A      2.090538  
     239A      2.103237   240A      2.115095   241A      2.151542  
     242A      2.170786   243A      2.200785   244A      2.218597  
     245A      2.235543   246A      2.261022   247A      2.264383  
     248A      2.289749   249A      2.320431   250A      2.341568  
     251A      2.351680   252A      2.378416   253A      2.385736  
     254A      2.395285   255A      2.430597   256A      2.443188  
     257A      2.452614   258A      2.469481   259A      2.480416  
     260A      2.490977   261A      2.531042   262A      2.548701  
     263A      2.560296   264A      2.626435   265A      2.627776  
     266A      2.643360   267A      2.661353   268A      2.672415  
     269A      2.696816   270A      2.774815   271A      2.800771  
     272A      2.811781   273A      2.867666   274A      2.887077  
     275A      2.957428   276A      2.979768   277A      2.997537  
     278A      3.063215   279A      3.096790   280A      3.099756  
     281A      3.172675   282A      3.206768   283A      3.239386  
     284A      3.279607   285A      3.361596   286A      3.376137  
     287A      3.410890   288A      3.431586   289A      3.443920  
     290A      3.451992   291A      3.476159   292A      3.485465  
     293A      3.512100   294A      3.514095   295A      3.543823  
     296A      3.552005   297A      3.571245   298A      3.586776  
     299A      3.598612   300A      3.601515   301A      3.615247  
     302A      3.617569   303A      3.623698   304A      3.646736  
     305A      3.660135   306A      3.667147   307A      3.682860  
     308A      3.683298   309A      3.690336   310A      3.705440  
     311A      3.722663   312A      3.744584   313A      3.748868  
     314A      3.762302   315A      3.770085   316A      3.777022  
     317A      3.779717   318A      3.800912   319A      3.812030  
     320A      3.826845   321A      3.828601   322A      3.839250  
     323A      3.851167   324A      3.862017   325A      3.867903  
     326A      3.880460   327A      3.882686   328A      3.896418  
     329A      3.916427   330A      3.921875   331A      3.950463  
     332A      3.964318   333A      3.986661   334A      3.998918  
     335A      4.023613   336A      4.037563   337A      4.047960  
     338A      4.076024   339A      4.093725   340A      4.104665  
     341A      4.123187   342A      4.132524   343A      4.136855  
     344A      4.159439   345A      4.171524   346A      4.182667  
     347A      4.188755   348A      4.196334   349A      4.205447  
     350A      4.225532   351A      4.235801   352A      4.249756  
     353A      4.276104   354A      4.279862   355A      4.297075  
     356A      4.313945   357A      4.330156   358A      4.338895  
     359A      4.357210   360A      4.363501   361A      4.369035  
     362A      4.387906   363A      4.402677   364A      4.415883  
     365A      4.420191   366A      4.436078   367A      4.446971  
     368A      4.463212   369A      4.473384   370A      4.497324  
     371A      4.510156   372A      4.515172   373A      4.521959  
     374A      4.543785   375A      4.548882   376A      4.580448  
     377A      4.587753   378A      4.591949   379A      4.603001  
     380A      4.611346   381A      4.615817   382A      4.635308  
     383A      4.639879   384A      4.644879   385A      4.663683  
     386A      4.673313   387A      4.679063   388A      4.691639  
     389A      4.712313   390A      4.719292   391A      4.735078  
     392A      4.745654   393A      4.755654   394A      4.768888  
     395A      4.777093   396A      4.780616   397A      4.791812  
     398A      4.799222   399A      4.808974   400A      4.811865  
     401A      4.833647   402A      4.845323   403A      4.848067  
     404A      4.861104   405A      4.868390   406A      4.883131  
     407A      4.883716   408A      4.897840   409A      4.905733  
     410A      4.922974   411A      4.935683   412A      4.944728  
     413A      4.956733   414A      4.965096   415A      4.988215  
     416A      4.996384   417A      5.001965   418A      5.017522  
     419A      5.032182   420A      5.041993   421A      5.052931  
     422A      5.087997   423A      5.105286   424A      5.116758  
     425A      5.124505   426A      5.140783   427A      5.152842  
     428A      5.156830   429A      5.167178   430A      5.184160  
     431A      5.196700   432A      5.219847   433A      5.236027  
     434A      5.281974   435A      5.291368   436A      5.312378  
     437A      5.331949   438A      5.351985   439A      5.392382  
     440A      5.403432   441A      5.432479   442A      5.443673  
     443A      5.466148   444A      5.481155   445A      5.487600  
     446A      5.512437   447A      5.558106   448A      5.565698  
     449A      5.573251   450A      5.624068   451A      5.643978  
     452A      5.651401   453A      5.661954   454A      5.671531  
     455A      5.681047   456A      5.685469   457A      5.689892  
     458A      5.701223   459A      5.731208   460A      5.745333  
     461A      5.784500   462A      5.841792   463A      5.868338  
     464A      5.891330   465A      5.899248   466A      5.914355  
     467A      5.963575   468A      5.998097   469A      6.008139  
     470A      6.056971   471A      6.064136   472A      6.066507  
     473A      6.077694   474A      6.106105   475A      6.117420  
     476A      6.197943   477A      6.250986   478A      6.283090  
     479A      6.292338   480A      6.328924   481A      6.357952  
     482A      6.395016   483A      6.414391   484A      6.425949  
     485A      6.441351   486A      6.456615   487A      6.475248  
     488A      6.495934   489A      6.526388   490A      6.652504  
     491A      6.690672   492A      6.718739   493A      6.748233  
     494A      6.780809   495A      6.807225   496A      6.831357  
     497A      6.941407   498A      6.970212   499A      7.004465  
     500A      7.034585   501A      7.088073   502A      7.118324  
     503A      7.232017   504A      7.274549   505A      7.289338  
     506A      7.331013   507A      7.354836   508A      7.387198  
     509A      7.405438   510A      7.412662   511A      7.469596  
     512A      7.497588   513A      7.552828   514A      7.592444  
     515A      7.651317   516A      7.670800   517A      7.688588  
     518A      7.711499   519A      7.746741   520A      7.773567  
     521A      7.828659   522A      7.850007   523A      7.888606  
     524A      7.911872   525A      7.965994   526A      7.972744  
     527A      8.057363   528A      8.142117   529A      8.165185  
     530A      8.293664   531A      8.392020   532A      8.622831  
     533A      8.875863   534A      9.480376   535A      9.653110  
     536A      9.787863   537A      9.913378   538A     10.213512  
     539A     12.392626   540A     13.977568   541A     14.414079  
     542A     14.725974   543A     41.693582   544A     44.204087  
     545A     45.562505   546A     45.969874   547A     47.223564  

    Final Occupation by Irrep:
              A 
    DOCC [    16 ]

  @DF-RHF Final Energy:  -227.90404953809457

   => Energetics <=

    Nuclear Repulsion Energy =            121.0841326840631211
    One-Electron Energy =                -551.5907948991754211
    Two-Electron Energy =                 202.6026126770177598
    Total Energy =                       -227.9040495380945686

Computation Completed


Properties will be evaluated at   0.000000,   0.000000,   0.000000 [a0]

Properties computed using the SCF density matrix

  Nuclear Dipole Moment: [e a0]
     X:  -121.5500      Y:    -6.4713      Z:     1.1038

  Electronic Dipole Moment: [e a0]
     X:   121.0900      Y:     6.6245      Z:    -1.7594

  Dipole Moment: [e a0]
     X:    -0.4599      Y:     0.1532      Z:    -0.6557     Total:     0.8154

  Dipole Moment: [D]
     X:    -1.1690      Y:     0.3894      Z:    -1.6665     Total:     2.0726


*** tstop() called on r282 at Sat Sep 11 00:28:45 2021
Module time:
	user time   =      53.26 seconds =       0.89 minutes
	system time =       0.81 seconds =       0.01 minutes
	total time  =         54 seconds =       0.90 minutes
Total time:
	user time   =     138.77 seconds =       2.31 minutes
	system time =       2.65 seconds =       0.04 minutes
	total time  =        142 seconds =       2.37 minutes

  //>>>>>>>>>>>>>>>>>>>>>>>>>>>>>>>>>>>//
  //            Monomer B HF           //
  //<<<<<<<<<<<<<<<<<<<<<<<<<<<<<<<<<<<//


*** tstart() called on r282
*** at Sat Sep 11 00:28:45 2021

   => Loading Basis Set <=

    Name: JUN-CC-PVTZ
    Role: ORBITAL
    Keyword: BASIS
    atoms 1, 5, 9-13    entry C          line   217 file /home/r08543048/miniconda3/share/psi4/basis/jun-cc-pvtz.gbs 
    atoms 2-3           entry O          line   305 file /home/r08543048/miniconda3/share/psi4/basis/jun-cc-pvtz.gbs 
    atoms 4, 6-8, 14-23 entry H          line    36 file /home/r08543048/miniconda3/share/psi4/basis/jun-cc-pvtz.gbs 


         ---------------------------------------------------------
                                   SCF
               by Justin Turney, Rob Parrish, Andy Simmonett
                          and Daniel G. A. Smith
                              RHF Reference
                        1 Threads,  20980 MiB Core
         ---------------------------------------------------------

  ==> Geometry <==

    Molecular point group: c1
    Full point group: C1

    Geometry (in Angstrom), charge = 0, multiplicity = 1:

       Center              X                  Y                   Z               Mass       
    ------------   -----------------  -----------------  -----------------  -----------------
      Gh(C)          -1.906831055894    -0.114890434253     0.130971437374    12.000000000000
      Gh(O)          -1.220697055894    -0.343709434253     1.105672437374    15.994914619570
      Gh(O)          -1.558026055894     0.772802565747    -0.824263562626    15.994914619570
      Gh(H)          -0.695434055894     1.155863565747    -0.564248562626     1.007825032230
      Gh(C)          -3.221934055894    -0.763482434253    -0.180719562626    12.000000000000
      Gh(H)          -3.480414055894    -1.460305434253     0.608328437374     1.007825032230
      Gh(H)          -3.990879055894     0.000421565747    -0.278045562626     1.007825032230
      Gh(H)          -3.152366055894    -1.282950434253    -1.134730562626     1.007825032230
         C            0.954771944106     2.415714565747     0.305650437374    12.000000000000
         C            1.734154944106     1.478339565747    -0.250634562626    12.000000000000
         C            2.008627944106     0.136109565747     0.346797437374    12.000000000000
         C            1.714319944106    -1.007779434253    -0.624410562626    12.000000000000
         C            1.944538944106    -2.366796434253     0.022954437374    12.000000000000
         H            0.474513944106     2.239897565747     1.260771437374     1.007825032230
         H            0.799724944106     3.374113565747    -0.171239562626     1.007825032230
         H            2.204355944106     1.692146565747    -1.207381562626     1.007825032230
         H            3.063629944106     0.081660565747     0.635291437374     1.007825032230
         H            1.411315944106     0.010697565747     1.251910437374     1.007825032230
         H            0.679476944106    -0.933984434253    -0.964802562626     1.007825032230
         H            2.345485944106    -0.900471434253    -1.510609562626     1.007825032230
         H            2.975023944106    -2.462368434253     0.367907437374     1.007825032230
         H            1.287911944106    -2.491573434253     0.884371437374     1.007825032230
         H            1.746946944106    -3.180503434253    -0.674230562626     1.007825032230

  Running in c1 symmetry.

  Rotational constants: A =      0.05732  B =      0.03160  C =      0.02322 [cm^-1]
  Rotational constants: A =   1718.49635  B =    947.40005  C =    696.16105 [MHz]
  Nuclear repulsion =  170.346307532636814

  Charge       = 0
  Multiplicity = 1
  Electrons    = 40
  Nalpha       = 20
  Nbeta        = 20

  ==> Algorithm <==

  SCF Algorithm Type is DF.
  DIIS enabled.
  MOM disabled.
  Fractional occupation disabled.
  Guess Type is SAD.
  Energy threshold   = 1.00e-08
  Density threshold  = 1.00e-08
  Integral threshold = 0.00e+00

  ==> Primary Basis <==

  Basis Set: JUN-CC-PVTZ
    Blend: JUN-CC-PVTZ
    Number of shells: 201
    Number of basis function: 547
    Number of Cartesian functions: 615
    Spherical Harmonics?: true
    Max angular momentum: 3

   => Loading Basis Set <=

    Name: (JUN-CC-PVTZ AUX)
    Role: JKFIT
    Keyword: DF_BASIS_SCF
    atoms 1, 5, 9-13    entry C          line   152 file /home/r08543048/miniconda3/share/psi4/basis/jun-cc-pvtz-jkfit.gbs 
    atoms 2-3           entry O          line   272 file /home/r08543048/miniconda3/share/psi4/basis/jun-cc-pvtz-jkfit.gbs 
    atoms 4, 6-8, 14-23 entry H          line    70 file /home/r08543048/miniconda3/share/psi4/basis/jun-cc-pvtz-jkfit.gbs 

  ==> Pre-Iterations <==

   -------------------------------------------------------
    Irrep   Nso     Nmo     Nalpha   Nbeta   Ndocc  Nsocc
   -------------------------------------------------------
     A        547     547       0       0       0       0
   -------------------------------------------------------
    Total     547     547      20      20      20       0
   -------------------------------------------------------

  ==> Integral Setup <==

  ==> DiskDFJK: Density-Fitted J/K Matrices <==

    J tasked:                  Yes
    K tasked:                  Yes
    wK tasked:                  No
    OpenMP threads:              1
    Integrals threads:           1
    Memory [MiB]:            15735
    Algorithm:                Core
    Integral Cache:           LOAD
    Schwarz Cutoff:          1E-12
    Fitting Condition:       1E-10

   => Auxiliary Basis Set <=

  Basis Set: (JUN-CC-PVTZ AUX)
    Blend: JUN-CC-PVTZ-JKFIT
    Number of shells: 401
    Number of basis function: 1275
    Number of Cartesian functions: 1534
    Spherical Harmonics?: true
    Max angular momentum: 4

  Minimum eigenvalue in the overlap matrix is 2.8399189974E-05.
  Using Symmetric Orthogonalization.

  SCF Guess: Superposition of Atomic Densities via on-the-fly atomic UHF.

  ==> Iterations <==

                           Total Energy        Delta E     RMS |[F,P]|

   @DF-RHF iter SAD:  -194.45202272057648   -1.94452e+02   0.00000e+00 
   @DF-RHF iter   1:  -194.99829076974714   -5.46268e-01   1.06602e-03 DIIS
   @DF-RHF iter   2:  -195.17535927746525   -1.77069e-01   4.66095e-04 DIIS
   @DF-RHF iter   3:  -195.20950399007245   -3.41447e-02   8.98463e-05 DIIS
   @DF-RHF iter   4:  -195.21183784614232   -2.33386e-03   2.98739e-05 DIIS
   @DF-RHF iter   5:  -195.21200308845437   -1.65242e-04   6.34082e-06 DIIS
   @DF-RHF iter   6:  -195.21201364220983   -1.05538e-05   1.42803e-06 DIIS
   @DF-RHF iter   7:  -195.21201414876583   -5.06556e-07   4.09683e-07 DIIS
   @DF-RHF iter   8:  -195.21201419395291   -4.51871e-08   9.54094e-08 DIIS
   @DF-RHF iter   9:  -195.21201419756048   -3.60757e-09   3.41529e-08 DIIS
   @DF-RHF iter  10:  -195.21201419809768   -5.37199e-10   1.15011e-08 DIIS
   @DF-RHF iter  11:  -195.21201419816248   -6.48015e-11   3.48383e-09 DIIS
  Energy and wave function converged.


  ==> Post-Iterations <==

    Orbital Energies [Eh]
    ---------------------

    Doubly Occupied:                                                      

       1A    -11.231366     2A    -11.222078     3A    -11.219472  
       4A    -11.217494     5A    -11.211537     6A     -1.089500  
       7A     -1.022039     8A     -0.922384     9A     -0.811277  
      10A     -0.757189    11A     -0.649924    12A     -0.617937  
      13A     -0.590526    14A     -0.566597    15A     -0.538512  
      16A     -0.511157    17A     -0.482276    18A     -0.475023  
      19A     -0.469481    20A     -0.355018  

    Virtual:                                                              

      21A      0.033758    22A      0.049560    23A      0.052218  
      24A      0.054007    25A      0.067925    26A      0.072863  
      27A      0.074843    28A      0.078617    29A      0.082938  
      30A      0.095802    31A      0.102614    32A      0.107353  
      33A      0.111646    34A      0.116065    35A      0.119009  
      36A      0.125161    37A      0.137442    38A      0.143738  
      39A      0.147536    40A      0.156304    41A      0.160372  
      42A      0.162019    43A      0.177978    44A      0.184601  
      45A      0.188466    46A      0.191283    47A      0.197740  
      48A      0.203220    49A      0.207234    50A      0.212238  
      51A      0.219525    52A      0.231065    53A      0.234928  
      54A      0.243062    55A      0.244460    56A      0.253532  
      57A      0.262628    58A      0.276376    59A      0.285338  
      60A      0.291808    61A      0.298716    62A      0.307435  
      63A      0.313094    64A      0.315375    65A      0.318929  
      66A      0.323681    67A      0.332058    68A      0.341409  
      69A      0.344109    70A      0.351499    71A      0.352679  
      72A      0.361733    73A      0.371904    74A      0.374440  
      75A      0.379274    76A      0.383299    77A      0.388861  
      78A      0.398872    79A      0.404821    80A      0.411766  
      81A      0.414816    82A      0.422993    83A      0.429861  
      84A      0.435011    85A      0.440014    86A      0.444870  
      87A      0.452563    88A      0.453995    89A      0.458829  
      90A      0.472870    91A      0.481863    92A      0.486733  
      93A      0.495939    94A      0.505024    95A      0.511065  
      96A      0.518072    97A      0.523011    98A      0.532589  
      99A      0.537156   100A      0.542763   101A      0.547193  
     102A      0.551500   103A      0.556362   104A      0.565964  
     105A      0.579569   106A      0.581702   107A      0.586271  
     108A      0.599722   109A      0.603649   110A      0.611364  
     111A      0.628081   112A      0.636147   113A      0.650232  
     114A      0.652882   115A      0.671895   116A      0.676968  
     117A      0.698572   118A      0.706570   119A      0.712801  
     120A      0.726619   121A      0.749895   122A      0.752805  
     123A      0.759181   124A      0.771661   125A      0.789424  
     126A      0.791055   127A      0.797748   128A      0.803793  
     129A      0.811057   130A      0.820492   131A      0.829629  
     132A      0.832791   133A      0.841021   134A      0.844480  
     135A      0.856170   136A      0.860914   137A      0.877238  
     138A      0.886349   139A      0.890711   140A      0.896657  
     141A      0.904684   142A      0.917281   143A      0.921843  
     144A      0.928549   145A      0.951172   146A      0.967492  
     147A      0.975176   148A      0.984443   149A      0.987644  
     150A      0.996857   151A      1.002424   152A      1.012173  
     153A      1.027976   154A      1.038025   155A      1.050473  
     156A      1.058772   157A      1.063328   158A      1.077121  
     159A      1.082833   160A      1.087258   161A      1.093050  
     162A      1.109796   163A      1.116026   164A      1.123418  
     165A      1.128044   166A      1.136624   167A      1.152032  
     168A      1.161571   169A      1.168939   170A      1.175581  
     171A      1.183806   172A      1.216327   173A      1.225644  
     174A      1.239179   175A      1.247104   176A      1.256361  
     177A      1.268069   178A      1.273378   179A      1.286493  
     180A      1.293054   181A      1.300391   182A      1.321702  
     183A      1.327735   184A      1.334064   185A      1.346282  
     186A      1.361155   187A      1.368750   188A      1.378847  
     189A      1.391057   190A      1.402997   191A      1.410008  
     192A      1.421344   193A      1.429875   194A      1.438666  
     195A      1.446285   196A      1.461795   197A      1.467543  
     198A      1.490110   199A      1.501828   200A      1.510509  
     201A      1.520641   202A      1.537300   203A      1.545128  
     204A      1.554144   205A      1.558508   206A      1.566778  
     207A      1.571481   208A      1.593772   209A      1.596352  
     210A      1.603791   211A      1.607608   212A      1.617251  
     213A      1.633312   214A      1.642594   215A      1.646183  
     216A      1.664311   217A      1.674979   218A      1.688592  
     219A      1.702108   220A      1.713137   221A      1.728193  
     222A      1.745949   223A      1.756695   224A      1.759918  
     225A      1.789661   226A      1.801794   227A      1.807006  
     228A      1.823163   229A      1.834451   230A      1.845335  
     231A      1.875983   232A      1.888124   233A      1.908557  
     234A      1.916160   235A      1.930226   236A      1.936618  
     237A      1.953435   238A      1.966156   239A      1.978522  
     240A      1.982370   241A      1.989435   242A      1.997901  
     243A      2.036814   244A      2.066649   245A      2.095889  
     246A      2.101476   247A      2.115282   248A      2.169474  
     249A      2.170981   250A      2.182411   251A      2.297591  
     252A      2.346751   253A      2.409688   254A      2.433378  
     255A      2.556024   256A      2.578420   257A      2.640364  
     258A      2.717512   259A      2.735979   260A      2.743824  
     261A      2.766094   262A      2.780873   263A      2.786493  
     264A      2.809177   265A      2.817482   266A      2.835187  
     267A      2.845016   268A      2.859166   269A      2.864645  
     270A      2.868743   271A      2.901934   272A      2.923589  
     273A      2.926379   274A      2.946515   275A      2.956496  
     276A      2.974228   277A      2.979870   278A      2.981329  
     279A      3.007360   280A      3.026971   281A      3.030082  
     282A      3.052088   283A      3.062030   284A      3.077382  
     285A      3.097011   286A      3.112919   287A      3.115854  
     288A      3.129629   289A      3.142326   290A      3.152989  
     291A      3.182482   292A      3.188310   293A      3.213147  
     294A      3.222525   295A      3.228783   296A      3.234602  
     297A      3.242448   298A      3.277500   299A      3.289740  
     300A      3.301809   301A      3.318764   302A      3.343600  
     303A      3.354455   304A      3.367166   305A      3.383269  
     306A      3.393759   307A      3.396411   308A      3.410684  
     309A      3.427120   310A      3.436293   311A      3.441825  
     312A      3.470784   313A      3.475018   314A      3.483742  
     315A      3.498857   316A      3.511478   317A      3.525005  
     318A      3.531037   319A      3.547697   320A      3.550795  
     321A      3.566565   322A      3.576268   323A      3.583191  
     324A      3.588646   325A      3.596454   326A      3.602651  
     327A      3.620009   328A      3.622531   329A      3.631155  
     330A      3.634017   331A      3.652781   332A      3.673088  
     333A      3.689006   334A      3.699937   335A      3.722700  
     336A      3.730910   337A      3.751160   338A      3.764459  
     339A      3.768229   340A      3.803215   341A      3.811574  
     342A      3.814164   343A      3.828953   344A      3.850795  
     345A      3.858794   346A      3.869055   347A      3.881006  
     348A      3.887958   349A      3.914972   350A      3.945642  
     351A      3.950392   352A      3.958707   353A      3.960971  
     354A      3.977181   355A      3.984239   356A      3.991681  
     357A      4.009310   358A      4.029666   359A      4.037291  
     360A      4.048137   361A      4.062260   362A      4.101593  
     363A      4.115701   364A      4.150444   365A      4.155132  
     366A      4.169054   367A      4.193105   368A      4.209474  
     369A      4.214751   370A      4.233632   371A      4.245735  
     372A      4.257110   373A      4.265147   374A      4.272402  
     375A      4.283894   376A      4.311596   377A      4.325192  
     378A      4.330492   379A      4.342614   380A      4.352958  
     381A      4.366437   382A      4.374646   383A      4.385491  
     384A      4.387568   385A      4.397100   386A      4.413295  
     387A      4.421138   388A      4.428822   389A      4.446964  
     390A      4.452935   391A      4.468742   392A      4.475368  
     393A      4.500855   394A      4.504050   395A      4.511285  
     396A      4.520940   397A      4.524602   398A      4.537313  
     399A      4.561781   400A      4.573692   401A      4.588015  
     402A      4.591309   403A      4.617790   404A      4.623131  
     405A      4.649314   406A      4.659264   407A      4.667844  
     408A      4.693995   409A      4.707607   410A      4.722032  
     411A      4.747174   412A      4.755730   413A      4.761988  
     414A      4.771787   415A      4.773586   416A      4.790071  
     417A      4.796981   418A      4.817978   419A      4.839190  
     420A      4.852383   421A      4.860859   422A      4.870914  
     423A      4.889120   424A      4.891529   425A      4.897370  
     426A      4.910528   427A      4.932629   428A      4.941692  
     429A      4.966427   430A      4.974089   431A      4.994339  
     432A      5.024154   433A      5.026131   434A      5.050727  
     435A      5.066528   436A      5.084201   437A      5.094134  
     438A      5.118777   439A      5.152409   440A      5.163569  
     441A      5.186709   442A      5.193726   443A      5.217547  
     444A      5.229115   445A      5.236036   446A      5.275622  
     447A      5.286235   448A      5.294818   449A      5.299328  
     450A      5.324827   451A      5.345255   452A      5.360598  
     453A      5.388562   454A      5.392968   455A      5.433270  
     456A      5.443054   457A      5.458606   458A      5.470442  
     459A      5.493538   460A      5.526265   461A      5.568732  
     462A      5.608865   463A      5.620786   464A      5.651078  
     465A      5.655110   466A      5.704371   467A      5.719696  
     468A      5.728670   469A      5.756946   470A      5.781450  
     471A      5.801059   472A      5.822212   473A      5.878470  
     474A      5.930518   475A      5.943085   476A      5.962911  
     477A      5.988792   478A      5.996445   479A      6.025632  
     480A      6.053119   481A      6.074965   482A      6.136977  
     483A      6.156778   484A      6.179979   485A      6.240128  
     486A      6.267972   487A      6.325706   488A      6.363735  
     489A      6.431460   490A      6.464329   491A      6.491890  
     492A      6.495980   493A      6.517380   494A      6.526916  
     495A      6.552899   496A      6.607682   497A      6.631336  
     498A      6.647443   499A      6.710638   500A      6.750066  
     501A      6.820230   502A      7.044546   503A      7.149128  
     504A      7.192876   505A      7.287743   506A      7.507089  
     507A      7.510812   508A      7.547033   509A      7.693546  
     510A      7.823924   511A      7.829962   512A      7.866162  
     513A      7.931208   514A      8.049774   515A      8.127313  
     516A      8.358822   517A      8.635600   518A      8.848508  
     519A      9.176237   520A      9.512722   521A      9.714869  
     522A      9.825543   523A      9.886033   524A      9.906979  
     525A      9.924612   526A      9.964236   527A      9.982517  
     528A     10.101047   529A     10.357143   530A     10.455817  
     531A     11.085453   532A     11.399508   533A     11.615035  
     534A     11.673562   535A     12.003885   536A     12.594915  
     537A     13.077219   538A     13.731371   539A     13.891319  
     540A     13.952114   541A     14.446322   542A     14.596266  
     543A     15.379864   544A     43.091487   545A     46.074529  
     546A     61.317337   547A     61.847628  

    Final Occupation by Irrep:
              A 
    DOCC [    20 ]

  @DF-RHF Final Energy:  -195.21201419816248

   => Energetics <=

    Nuclear Repulsion Energy =            170.3463075326368141
    One-Electron Energy =                -599.1950745794649720
    Two-Electron Energy =                 233.6367528486656511
    Total Energy =                       -195.2120141981624784

Computation Completed


Properties will be evaluated at   0.000000,   0.000000,   0.000000 [a0]

Properties computed using the SCF density matrix

  Nuclear Dipole Moment: [e a0]
     X:   126.8514      Y:     2.5760      Z:    -2.5055

  Electronic Dipole Moment: [e a0]
     X:  -126.7787      Y:    -2.7430      Z:     2.4731

  Dipole Moment: [e a0]
     X:     0.0727      Y:    -0.1671      Z:    -0.0324     Total:     0.1850

  Dipole Moment: [D]
     X:     0.1847      Y:    -0.4246      Z:    -0.0823     Total:     0.4703


*** tstop() called on r282 at Sat Sep 11 00:29:41 2021
Module time:
	user time   =      55.24 seconds =       0.92 minutes
	system time =       0.89 seconds =       0.01 minutes
	total time  =         56 seconds =       0.93 minutes
Total time:
	user time   =     194.01 seconds =       3.23 minutes
	system time =       3.54 seconds =       0.06 minutes
	total time  =        198 seconds =       3.30 minutes
  Constructing Basis Sets for SAPT...

   => Loading Basis Set <=

    Name: (JUN-CC-PVTZ AUX)
    Role: RIFIT
    Keyword: DF_BASIS_SAPT
    atoms 1, 5, 9-13    entry C          line   132 file /home/r08543048/miniconda3/share/psi4/basis/jun-cc-pvtz-ri.gbs 
    atoms 2-3           entry O          line   244 file /home/r08543048/miniconda3/share/psi4/basis/jun-cc-pvtz-ri.gbs 
    atoms 4, 6-8, 14-23 entry H          line    30 file /home/r08543048/miniconda3/share/psi4/basis/jun-cc-pvtz-ri.gbs 


  //>>>>>>>>>>>>>>>>>>>>>>>>>>>>>>>>>>>//
  //               SAPT0               //
  //<<<<<<<<<<<<<<<<<<<<<<<<<<<<<<<<<<<//


*** tstart() called on r282
*** at Sat Sep 11 00:29:41 2021

        SAPT0  
    Ed Hohenstein
     6 June 2009

      Orbital Information
  --------------------------
    NSO        =       547
    NMO        =       547
    NRI        =      1293
    NOCC A     =        16
    NOCC B     =        20
    FOCC A     =         0
    FOCC B     =         0
    NVIR A     =       531
    NVIR B     =       527

    Elst10,r            =    -0.012843639836 [Eh]
    Exch10              =     0.017205893411 [Eh]
    Exch10 (S^2)        =     0.017069685369 [Eh]

    Iter     Energy [mEh]          dE [mEh]         Residual      Time [s]
       1      -1.08309025       1.083090250       4.742485006             1
       2      -1.31201179       0.228921541       1.733091284             2
       3      -1.32473361       0.012721820       0.609101850             3
       4      -1.31934037      -0.005393240       0.262596566             5
       5      -1.31790235      -0.001438025       0.096842619             6
       6      -1.31835550       0.000453159       0.041863807             7
       7      -1.31866627       0.000310764       0.010898373             8
       8      -1.31858712      -0.000079150       0.003481672            10
       9      -1.31857100      -0.000016120       0.000938134            11
      10      -1.31857815       0.000007155       0.000365746            12
      11      -1.31857789      -0.000000261       0.000149000            13
      12      -1.31857719      -0.000000705       0.000048475            15
      13      -1.31857735       0.000000162       0.000014204            16
      14      -1.31857739       0.000000036       0.000003360            17
      15      -1.31857738      -0.000000010       0.000000897            18

    CHF Iterations converged


    Iter     Energy [mEh]          dE [mEh]         Residual      Time [s]
       1      -7.00173493       7.001734931      14.951643256             2
       2      -8.73481722       1.733082286       5.884540964             3
       3      -8.99459090       0.259773681       1.610965527             4
       4      -8.95788958      -0.036701319       0.588103582             6
       5      -8.93846216      -0.019427421       0.186675108             7
       6      -8.94156312       0.003100964       0.080033123             9
       7      -8.94337232       0.001809198       0.020748514            10
       8      -8.94291877      -0.000453553       0.005552172            13
       9      -8.94286826      -0.000050507       0.001601174            14
      10      -8.94288802       0.000019756       0.000439414            16
      11      -8.94289186       0.000003848       0.000113527            17
      12      -8.94289031      -0.000001551       0.000027052            19
      13      -8.94289020      -0.000000110       0.000007383            20
      14      -8.94289030       0.000000095       0.000002449            21
      15      -8.94289030      -0.000000002       0.000000863            23

    CHF Iterations converged

    Ind20,r (A<-B)      =    -0.001318577377 [Eh]
    Ind20,r (B<-A)      =    -0.008942890296 [Eh]
    Ind20,r             =    -0.010261467673 [Eh]
    Exch-Ind20,r (A<-B) =     0.001084225281 [Eh]
    Exch-Ind20,r (B<-A) =     0.005976160794 [Eh]
    Exch-Ind20,r        =     0.007060386075 [Eh]
    Disp20              =    -0.011766761950 [Eh]
    Disp20 (SS)         =    -0.005883380975 [Eh]
    Disp20 (OS)         =    -0.005883380975 [Eh]
    Exch-Disp20         =     0.001660054693 [Eh]
    Exch-Disp20 (SS)    =     0.001069553382 [Eh]
    Exch-Disp20 (OS)    =     0.000590501311 [Eh]

    SAPT Results 
  --------------------------------------------------------------------------------------------------------
    Electrostatics                -12.84363984 [mEh]      -8.05950567 [kcal/mol]     -33.72097174 [kJ/mol]
      Elst10,r                    -12.84363984 [mEh]      -8.05950567 [kcal/mol]     -33.72097174 [kJ/mol]

    Exchange                       17.20589341 [mEh]      10.79686112 [kcal/mol]      45.17406693 [kJ/mol]
      Exch10                       17.20589341 [mEh]      10.79686112 [kcal/mol]      45.17406693 [kJ/mol]
      Exch10(S^2)                  17.06968537 [mEh]      10.71138928 [kcal/mol]      44.81645276 [kJ/mol]

    Induction                      -5.55256970 [mEh]      -3.48429009 [kcal/mol]     -14.57826974 [kJ/mol]
      Ind20,r                     -10.26146767 [mEh]      -6.43916818 [kcal/mol]     -26.94147966 [kJ/mol]
      Exch-Ind20,r                  7.06038607 [mEh]       4.43045915 [kcal/mol]      18.53704109 [kJ/mol]
      delta HF,r (2)               -2.35148810 [mEh]      -1.47558106 [kcal/mol]      -6.17383116 [kJ/mol]

    Dispersion                    -10.10670726 [mEh]      -6.34205455 [kcal/mol]     -26.53515625 [kJ/mol]
      Disp20                      -11.76676195 [mEh]      -7.38375460 [kcal/mol]     -30.89362924 [kJ/mol]
      Exch-Disp20                   1.66005469 [mEh]       1.04170005 [kcal/mol]       4.35847300 [kJ/mol]
      Disp20 (SS)                  -5.88338097 [mEh]      -3.69187730 [kcal/mol]     -15.44681462 [kJ/mol]
      Disp20 (OS)                  -5.88338097 [mEh]      -3.69187730 [kcal/mol]     -15.44681462 [kJ/mol]
      Exch-Disp20 (SS)              1.06955338 [mEh]       0.67115488 [kcal/mol]       2.80811202 [kJ/mol]
      Exch-Disp20 (OS)              0.59050131 [mEh]       0.37054517 [kcal/mol]       1.55036098 [kJ/mol]

  Total HF                         -1.19031612 [mEh]      -0.74693464 [kcal/mol]      -3.12517455 [kJ/mol]
  Total SAPT0                     -11.29702338 [mEh]      -7.08898920 [kcal/mol]     -29.66033080 [kJ/mol]

  Special recipe for scaled SAPT0 (see Manual):
    Electrostatics sSAPT0         -12.84363984 [mEh]      -8.05950567 [kcal/mol]     -33.72097174 [kJ/mol]
    Exchange sSAPT0                17.20589341 [mEh]      10.79686112 [kcal/mol]      45.17406693 [kJ/mol]
    Induction sSAPT0               -5.38220179 [mEh]      -3.37738261 [kcal/mol]     -14.13096885 [kJ/mol]
    Dispersion sSAPT0             -10.06664995 [mEh]      -6.31691821 [kcal/mol]     -26.42998580 [kJ/mol]
  Total sSAPT0                    -11.08659817 [mEh]      -6.95694538 [kcal/mol]     -29.10785947 [kJ/mol]
  --------------------------------------------------------------------------------------------------------

*** tstop() called on r282 at Sat Sep 11 00:32:38 2021
Module time:
	user time   =     150.04 seconds =       2.50 minutes
	system time =      24.27 seconds =       0.40 minutes
	total time  =        177 seconds =       2.95 minutes
Total time:
	user time   =     344.20 seconds =       5.74 minutes
	system time =      27.81 seconds =       0.46 minutes
	total time  =        375 seconds =       6.25 minutes

    Psi4 stopped on: Saturday, 11 September 2021 12:32AM
    Psi4 wall time for execution: 0:06:14.30

*** Psi4 exiting successfully. Buy a developer a beer!
