
    -----------------------------------------------------------------------
          Psi4: An Open-Source Ab Initio Electronic Structure Package
                               Psi4 1.3.2 release

                         Git: Rev {HEAD} ecbda83 


    R. M. Parrish, L. A. Burns, D. G. A. Smith, A. C. Simmonett,
    A. E. DePrince III, E. G. Hohenstein, U. Bozkaya, A. Yu. Sokolov,
    R. Di Remigio, R. M. Richard, J. F. Gonthier, A. M. James,
    H. R. McAlexander, A. Kumar, M. Saitow, X. Wang, B. P. Pritchard,
    P. Verma, H. F. Schaefer III, K. Patkowski, R. A. King, E. F. Valeev,
    F. A. Evangelista, J. M. Turney, T. D. Crawford, and C. D. Sherrill,
    J. Chem. Theory Comput. 13(7) pp 3185--3197 (2017).
    (doi: 10.1021/acs.jctc.7b00174)


                         Additional Contributions by
    P. Kraus, H. Kruse, M. H. Lechner, M. C. Schieber, R. A. Shaw,
    A. Alenaizan, R. Galvelis, Z. L. Glick, S. Lehtola, and J. P. Misiewicz

    -----------------------------------------------------------------------


    Psi4 started on: Saturday, 11 September 2021 12:32AM

    Process ID: 57384
    Host:       r282
    PSIDATADIR: /home/r08543048/miniconda3/share/psi4
    Memory:     500.0 MiB
    Threads:    1
    
  ==> Input File <==

--------------------------------------------------------------------------
# Any line starting with the # character is a comment line
#! Sample  computation

memory 22 gb

molecule Dimer {
0 1
 C  -3.903752   -1.419297    0.184930
 C  -3.394906   -0.105577   -0.380895
 C  -1.966246    0.172100    0.000179
 O  -1.269551   -0.545765    0.687808
 O  -1.535188    1.339064   -0.522843
 H  -3.848590   -1.418822    1.271435
 H  -4.938396   -1.584053   -0.110402
 H  -3.303558   -2.252696   -0.174094
 H  -3.992118    0.740633   -0.036863
 H  -3.450165   -0.086040   -1.470621
 H  -0.607952    1.465066   -0.236371
  
  
  
  
  
  
    
    
 --
0 1
 C   1.522949    2.433361    0.035659
 C   1.586281    1.187764    0.524469
 C   2.000344   -0.016311   -0.255423
 C   3.254833   -0.669581    0.327719
 C   3.649043   -1.924461   -0.440400
 H   1.768243    2.638376   -0.999391
 H   1.236218    3.269830    0.658489
 H   1.333325    1.020057    1.567589
 H   1.185281   -0.745956   -0.239031
 H   2.179349    0.260749   -1.297960
 H   4.073835    0.053066    0.314273
 H   3.071737   -0.918242    1.375852
 H   2.845617   -2.661186   -0.412282
 H   3.850571   -1.690486   -1.486403
 H   4.543233   -2.384682   -0.021361




units angstrom

no_reorient
symmetry c1
}

set globals{
  basis jun-cc-pvtz
}

energy('sapt0')


--------------------------------------------------------------------------

  Memory set to  20.489 GiB by Python driver.

  //>>>>>>>>>>>>>>>>>>>>>>>>>>>>>>>>>>>//
  //              Dimer HF             //
  //<<<<<<<<<<<<<<<<<<<<<<<<<<<<<<<<<<<//


*** tstart() called on r282
*** at Sat Sep 11 00:32:39 2021

   => Loading Basis Set <=

    Name: JUN-CC-PVTZ
    Role: ORBITAL
    Keyword: BASIS
    atoms 1-3, 12-16  entry C          line   217 file /home/r08543048/miniconda3/share/psi4/basis/jun-cc-pvtz.gbs 
    atoms 4-5         entry O          line   305 file /home/r08543048/miniconda3/share/psi4/basis/jun-cc-pvtz.gbs 
    atoms 6-11, 17-26 entry H          line    36 file /home/r08543048/miniconda3/share/psi4/basis/jun-cc-pvtz.gbs 


         ---------------------------------------------------------
                                   SCF
               by Justin Turney, Rob Parrish, Andy Simmonett
                          and Daniel G. A. Smith
                              RHF Reference
                        1 Threads,  20980 MiB Core
         ---------------------------------------------------------

  ==> Geometry <==

    Molecular point group: c1
    Full point group: C1

    Geometry (in Angstrom), charge = 0, multiplicity = 1:

       Center              X                  Y                   Z               Mass       
    ------------   -----------------  -----------------  -----------------  -----------------
         C           -3.862910692374    -1.448834072373     0.176005421333    12.000000000000
         C           -3.354064692374    -0.135114072373    -0.389819578667    12.000000000000
         C           -1.925404692374     0.142562927627    -0.008745578667    12.000000000000
         O           -1.228709692374    -0.575302072373     0.678883421333    15.994914619570
         O           -1.494346692374     1.309526927627    -0.531767578667    15.994914619570
         H           -3.807748692374    -1.448359072373     1.262510421333     1.007825032230
         H           -4.897554692374    -1.613590072373    -0.119326578667     1.007825032230
         H           -3.262716692374    -2.282233072373    -0.183018578667     1.007825032230
         H           -3.951276692374     0.711095927627    -0.045787578667     1.007825032230
         H           -3.409323692374    -0.115577072373    -1.479545578667     1.007825032230
         H           -0.567110692374     1.435528927627    -0.245295578667     1.007825032230
         C            1.563790307626     2.403823927627     0.026734421333    12.000000000000
         C            1.627122307626     1.158226927627     0.515544421333    12.000000000000
         C            2.041185307626    -0.045848072373    -0.264347578667    12.000000000000
         C            3.295674307626    -0.699118072373     0.318794421333    12.000000000000
         C            3.689884307626    -1.953998072373    -0.449324578667    12.000000000000
         H            1.809084307626     2.608838927627    -1.008315578667     1.007825032230
         H            1.277059307626     3.240292927627     0.649564421333     1.007825032230
         H            1.374166307626     0.990519927627     1.558664421333     1.007825032230
         H            1.226122307626    -0.775493072373    -0.247955578667     1.007825032230
         H            2.220190307626     0.231211927627    -1.306884578667     1.007825032230
         H            4.114676307626     0.023528927627     0.305348421333     1.007825032230
         H            3.112578307626    -0.947779072373     1.366927421333     1.007825032230
         H            2.886458307626    -2.690723072373    -0.421206578667     1.007825032230
         H            3.891412307626    -1.720023072373    -1.495327578667     1.007825032230
         H            4.584074307626    -2.414219072373    -0.030285578667     1.007825032230

  Running in c1 symmetry.

  Rotational constants: A =      0.06020  B =      0.01651  C =      0.01371 [cm^-1]
  Rotational constants: A =   1804.68457  B =    494.84104  C =    410.94234 [MHz]
  Nuclear repulsion =  521.135517754693524

  Charge       = 0
  Multiplicity = 1
  Electrons    = 80
  Nalpha       = 40
  Nbeta        = 40

  ==> Algorithm <==

  SCF Algorithm Type is DF.
  DIIS enabled.
  MOM disabled.
  Fractional occupation disabled.
  Guess Type is SAD.
  Energy threshold   = 1.00e-08
  Density threshold  = 1.00e-08
  Integral threshold = 0.00e+00

  ==> Primary Basis <==

  Basis Set: JUN-CC-PVTZ
    Blend: JUN-CC-PVTZ
    Number of shells: 226
    Number of basis function: 614
    Number of Cartesian functions: 690
    Spherical Harmonics?: true
    Max angular momentum: 3

   => Loading Basis Set <=

    Name: (JUN-CC-PVTZ AUX)
    Role: JKFIT
    Keyword: DF_BASIS_SCF
    atoms 1-3, 12-16  entry C          line   152 file /home/r08543048/miniconda3/share/psi4/basis/jun-cc-pvtz-jkfit.gbs 
    atoms 4-5         entry O          line   272 file /home/r08543048/miniconda3/share/psi4/basis/jun-cc-pvtz-jkfit.gbs 
    atoms 6-11, 17-26 entry H          line    70 file /home/r08543048/miniconda3/share/psi4/basis/jun-cc-pvtz-jkfit.gbs 

  ==> Pre-Iterations <==

   -------------------------------------------------------
    Irrep   Nso     Nmo     Nalpha   Nbeta   Ndocc  Nsocc
   -------------------------------------------------------
     A        614     614       0       0       0       0
   -------------------------------------------------------
    Total     614     614      40      40      40       0
   -------------------------------------------------------

  ==> Integral Setup <==

  ==> DiskDFJK: Density-Fitted J/K Matrices <==

    J tasked:                  Yes
    K tasked:                  Yes
    wK tasked:                  No
    OpenMP threads:              1
    Integrals threads:           1
    Memory [MiB]:            15735
    Algorithm:                Core
    Integral Cache:           SAVE
    Schwarz Cutoff:          1E-12
    Fitting Condition:       1E-10

   => Auxiliary Basis Set <=

  Basis Set: (JUN-CC-PVTZ AUX)
    Blend: JUN-CC-PVTZ-JKFIT
    Number of shells: 450
    Number of basis function: 1430
    Number of Cartesian functions: 1720
    Spherical Harmonics?: true
    Max angular momentum: 4

  Minimum eigenvalue in the overlap matrix is 2.5573965758E-05.
  Using Symmetric Orthogonalization.

  SCF Guess: Superposition of Atomic Densities via on-the-fly atomic UHF.

  ==> Iterations <==

                           Total Energy        Delta E     RMS |[F,P]|

   @DF-RHF iter SAD:  -460.66147527141817   -4.60661e+02   0.00000e+00 
   @DF-RHF iter   1:  -461.76728506449069   -1.10581e+00   1.40001e-03 DIIS
   @DF-RHF iter   2:  -462.08164740222855   -3.14362e-01   7.27522e-04 DIIS
   @DF-RHF iter   3:  -462.16070501303375   -7.90576e-02   1.50323e-04 DIIS
   @DF-RHF iter   4:  -462.16596422904547   -5.25922e-03   7.14621e-05 DIIS
   @DF-RHF iter   5:  -462.16698788781122   -1.02366e-03   1.23373e-05 DIIS
   @DF-RHF iter   6:  -462.16704298726484   -5.50995e-05   5.85397e-06 DIIS
   @DF-RHF iter   7:  -462.16705332520155   -1.03379e-05   1.91569e-06 DIIS
   @DF-RHF iter   8:  -462.16705529491861   -1.96972e-06   7.95551e-07 DIIS
   @DF-RHF iter   9:  -462.16705563670092   -3.41782e-07   2.47804e-07 DIIS
   @DF-RHF iter  10:  -462.16705566871769   -3.20168e-08   6.35355e-08 DIIS
   @DF-RHF iter  11:  -462.16705567064122   -1.92352e-09   1.79149e-08 DIIS
   @DF-RHF iter  12:  -462.16705567075570   -1.14483e-10   5.47119e-09 DIIS
  Energy and wave function converged.


  ==> Post-Iterations <==

    Orbital Energies [Eh]
    ---------------------

    Doubly Occupied:                                                      

       1A    -20.597735     2A    -20.541865     3A    -11.378900  
       4A    -11.242516     5A    -11.240859     6A    -11.226708  
       7A    -11.220332     8A    -11.218921     9A    -11.218367  
      10A    -11.209749    11A     -1.451872    12A     -1.350063  
      13A     -1.093931    14A     -1.062638    15A     -1.026810  
      16A     -0.925435    17A     -0.909737    18A     -0.812568  
      19A     -0.786724    20A     -0.762550    21A     -0.698171  
      22A     -0.681136    23A     -0.654781    24A     -0.654002  
      25A     -0.620036    26A     -0.594047    27A     -0.589194  
      28A     -0.585440    29A     -0.566980    30A     -0.539684  
      31A     -0.529842    32A     -0.522112    33A     -0.512801  
      34A     -0.500588    35A     -0.483833    36A     -0.475711  
      37A     -0.474465    38A     -0.469230    39A     -0.445134  
      40A     -0.368088  

    Virtual:                                                              

      41A      0.049578    42A      0.051317    43A      0.052221  
      44A      0.057070    45A      0.064054    46A      0.071320  
      47A      0.074189    48A      0.081406    49A      0.085624  
      50A      0.094290    51A      0.098986    52A      0.103161  
      53A      0.106005    54A      0.109001    55A      0.114874  
      56A      0.121191    57A      0.126141    58A      0.129792  
      59A      0.136508    60A      0.149273    61A      0.156530  
      62A      0.161616    63A      0.161961    64A      0.171879  
      65A      0.181974    66A      0.186322    67A      0.187036  
      68A      0.196675    69A      0.198045    70A      0.202919  
      71A      0.203483    72A      0.215053    73A      0.222394  
      74A      0.232380    75A      0.235817    76A      0.242323  
      77A      0.250345    78A      0.263855    79A      0.265508  
      80A      0.270543    81A      0.277692    82A      0.288742  
      83A      0.291891    84A      0.297489    85A      0.300957  
      86A      0.302285    87A      0.305882    88A      0.307402  
      89A      0.314359    90A      0.319215    91A      0.322425  
      92A      0.330254    93A      0.332837    94A      0.338125  
      95A      0.340074    96A      0.341812    97A      0.347288  
      98A      0.352980    99A      0.358327   100A      0.368430  
     101A      0.370124   102A      0.373473   103A      0.378792  
     104A      0.389542   105A      0.393522   106A      0.397848  
     107A      0.404471   108A      0.409473   109A      0.414268  
     110A      0.423548   111A      0.427050   112A      0.428259  
     113A      0.440686   114A      0.445847   115A      0.449667  
     116A      0.456423   117A      0.462222   118A      0.466602  
     119A      0.478277   120A      0.485304   121A      0.491265  
     122A      0.492444   123A      0.503903   124A      0.509829  
     125A      0.516806   126A      0.527078   127A      0.530849  
     128A      0.533078   129A      0.537230   130A      0.543660  
     131A      0.550302   132A      0.555096   133A      0.563484  
     134A      0.568359   135A      0.575943   136A      0.584974  
     137A      0.589449   138A      0.597514   139A      0.607915  
     140A      0.617304   141A      0.629557   142A      0.633819  
     143A      0.638151   144A      0.649614   145A      0.661327  
     146A      0.670727   147A      0.676852   148A      0.697748  
     149A      0.699677   150A      0.704610   151A      0.713701  
     152A      0.722972   153A      0.725872   154A      0.735945  
     155A      0.738859   156A      0.741928   157A      0.757113  
     158A      0.762848   159A      0.766324   160A      0.779219  
     161A      0.784195   162A      0.791806   163A      0.798960  
     164A      0.804722   165A      0.814206   166A      0.816146  
     167A      0.823529   168A      0.831930   169A      0.838611  
     170A      0.841731   171A      0.849212   172A      0.853391  
     173A      0.862742   174A      0.865388   175A      0.876842  
     176A      0.883223   177A      0.886477   178A      0.895079  
     179A      0.902764   180A      0.912878   181A      0.914250  
     182A      0.923312   183A      0.931397   184A      0.939778  
     185A      0.949704   186A      0.950481   187A      0.965662  
     188A      0.970039   189A      0.977409   190A      0.988399  
     191A      0.993231   192A      1.008965   193A      1.017431  
     194A      1.019746   195A      1.038066   196A      1.040446  
     197A      1.057892   198A      1.070911   199A      1.085023  
     200A      1.087880   201A      1.102178   202A      1.105636  
     203A      1.109434   204A      1.123141   205A      1.126442  
     206A      1.143643   207A      1.151373   208A      1.154123  
     209A      1.162762   210A      1.178358   211A      1.194569  
     212A      1.200755   213A      1.228156   214A      1.234679  
     215A      1.236773   216A      1.265267   217A      1.278727  
     218A      1.282578   219A      1.289548   220A      1.300917  
     221A      1.304311   222A      1.312462   223A      1.314342  
     224A      1.329116   225A      1.340029   226A      1.348467  
     227A      1.349754   228A      1.360293   229A      1.370928  
     230A      1.381848   231A      1.398823   232A      1.406870  
     233A      1.407683   234A      1.419821   235A      1.427142  
     236A      1.430535   237A      1.435767   238A      1.439437  
     239A      1.446544   240A      1.453953   241A      1.468439  
     242A      1.476533   243A      1.493021   244A      1.496546  
     245A      1.505079   246A      1.510141   247A      1.515273  
     248A      1.527158   249A      1.540189   250A      1.543221  
     251A      1.550134   252A      1.560703   253A      1.570629  
     254A      1.577636   255A      1.592399   256A      1.595164  
     257A      1.604360   258A      1.616261   259A      1.618712  
     260A      1.626445   261A      1.637560   262A      1.654895  
     263A      1.674295   264A      1.677036   265A      1.687008  
     266A      1.689902   267A      1.699217   268A      1.708491  
     269A      1.728154   270A      1.743166   271A      1.759343  
     272A      1.765956   273A      1.767518   274A      1.782165  
     275A      1.798530   276A      1.807839   277A      1.819240  
     278A      1.830092   279A      1.841297   280A      1.855865  
     281A      1.879910   282A      1.892988   283A      1.895421  
     284A      1.913267   285A      1.915983   286A      1.926624  
     287A      1.932165   288A      1.951159   289A      1.961458  
     290A      1.975511   291A      1.998117   292A      2.021825  
     293A      2.049730   294A      2.074996   295A      2.100614  
     296A      2.138184   297A      2.161118   298A      2.238946  
     299A      2.251901   300A      2.269467   301A      2.301222  
     302A      2.344535   303A      2.391719   304A      2.456094  
     305A      2.483297   306A      2.488853   307A      2.614557  
     308A      2.645017   309A      2.655137   310A      2.746730  
     311A      2.763518   312A      2.778264   313A      2.795298  
     314A      2.798317   315A      2.820779   316A      2.829877  
     317A      2.835162   318A      2.844374   319A      2.856762  
     320A      2.866229   321A      2.876630   322A      2.886128  
     323A      2.895719   324A      2.900582   325A      2.923990  
     326A      2.936383   327A      2.939777   328A      2.966913  
     329A      2.977728   330A      2.987090   331A      2.996938  
     332A      3.018466   333A      3.029472   334A      3.039158  
     335A      3.044982   336A      3.061034   337A      3.069722  
     338A      3.078395   339A      3.097362   340A      3.117214  
     341A      3.119758   342A      3.130944   343A      3.135545  
     344A      3.137727   345A      3.155462   346A      3.161939  
     347A      3.169332   348A      3.175105   349A      3.192728  
     350A      3.205215   351A      3.214804   352A      3.217719  
     353A      3.238256   354A      3.247384   355A      3.251650  
     356A      3.268176   357A      3.285143   358A      3.298705  
     359A      3.305772   360A      3.307852   361A      3.320248  
     362A      3.324373   363A      3.341447   364A      3.346694  
     365A      3.362355   366A      3.374049   367A      3.375530  
     368A      3.389829   369A      3.395715   370A      3.405159  
     371A      3.414069   372A      3.422382   373A      3.434224  
     374A      3.446187   375A      3.455798   376A      3.467284  
     377A      3.470001   378A      3.481189   379A      3.487418  
     380A      3.489033   381A      3.493553   382A      3.503011  
     383A      3.509789   384A      3.519613   385A      3.521062  
     386A      3.522876   387A      3.535680   388A      3.539279  
     389A      3.553628   390A      3.559395   391A      3.580080  
     392A      3.583931   393A      3.588373   394A      3.595511  
     395A      3.614469   396A      3.616798   397A      3.622959  
     398A      3.630650   399A      3.648982   400A      3.655143  
     401A      3.663906   402A      3.683493   403A      3.688485  
     404A      3.697258   405A      3.703287   406A      3.732362  
     407A      3.747903   408A      3.755144   409A      3.770915  
     410A      3.776216   411A      3.787667   412A      3.801577  
     413A      3.809290   414A      3.820391   415A      3.825990  
     416A      3.837858   417A      3.844250   418A      3.862690  
     419A      3.877718   420A      3.880836   421A      3.886791  
     422A      3.896820   423A      3.904360   424A      3.918070  
     425A      3.928460   426A      3.952392   427A      3.964014  
     428A      3.967527   429A      3.976770   430A      3.992825  
     431A      4.008659   432A      4.013098   433A      4.038359  
     434A      4.054555   435A      4.064791   436A      4.072897  
     437A      4.087584   438A      4.120742   439A      4.125644  
     440A      4.164327   441A      4.175521   442A      4.183105  
     443A      4.208739   444A      4.220029   445A      4.220352  
     446A      4.226298   447A      4.230521   448A      4.241523  
     449A      4.255141   450A      4.264622   451A      4.271560  
     452A      4.293778   453A      4.310442   454A      4.313409  
     455A      4.325871   456A      4.338169   457A      4.343739  
     458A      4.351221   459A      4.356426   460A      4.365970  
     461A      4.372965   462A      4.375791   463A      4.386701  
     464A      4.394297   465A      4.408145   466A      4.424348  
     467A      4.429220   468A      4.440165   469A      4.446523  
     470A      4.453326   471A      4.457951   472A      4.474059  
     473A      4.482870   474A      4.492564   475A      4.495795  
     476A      4.505726   477A      4.511272   478A      4.517415  
     479A      4.534594   480A      4.557534   481A      4.574357  
     482A      4.583641   483A      4.591447   484A      4.604574  
     485A      4.616571   486A      4.637250   487A      4.640285  
     488A      4.652669   489A      4.673855   490A      4.678977  
     491A      4.688707   492A      4.710281   493A      4.714495  
     494A      4.728187   495A      4.734245   496A      4.743723  
     497A      4.752759   498A      4.775828   499A      4.798988  
     500A      4.816655   501A      4.831945   502A      4.838545  
     503A      4.858154   504A      4.887310   505A      4.911777  
     506A      4.925708   507A      4.937004   508A      4.947505  
     509A      4.981860   510A      4.985243   511A      5.019721  
     512A      5.028156   513A      5.049048   514A      5.094955  
     515A      5.118558   516A      5.124859   517A      5.138225  
     518A      5.148635   519A      5.184524   520A      5.199658  
     521A      5.213443   522A      5.222923   523A      5.259287  
     524A      5.264306   525A      5.277831   526A      5.280837  
     527A      5.289226   528A      5.292775   529A      5.296037  
     530A      5.320249   531A      5.323350   532A      5.348536  
     533A      5.362066   534A      5.366735   535A      5.392784  
     536A      5.419603   537A      5.432199   538A      5.456167  
     539A      5.460385   540A      5.476752   541A      5.498348  
     542A      5.525566   543A      5.569710   544A      5.590222  
     545A      5.616160   546A      5.621665   547A      5.645885  
     548A      5.651572   549A      5.661103   550A      5.665264  
     551A      5.703794   552A      5.725241   553A      5.740824  
     554A      5.741513   555A      5.760017   556A      5.772914  
     557A      5.794932   558A      5.813442   559A      5.828752  
     560A      5.849860   561A      5.863899   562A      5.882535  
     563A      5.902579   564A      5.913498   565A      5.924080  
     566A      5.939447   567A      5.951662   568A      5.970429  
     569A      5.985466   570A      6.033828   571A      6.036970  
     572A      6.071115   573A      6.137104   574A      6.149890  
     575A      6.251665   576A      6.310533   577A      6.388702  
     578A      6.476797   579A      6.484698   580A      6.494665  
     581A      6.501718   582A      6.509820   583A      6.524843  
     584A      6.560711   585A      6.582289   586A      6.629315  
     587A      6.713337   588A      6.752096   589A      6.798272  
     590A      6.997173   591A      7.012014   592A      7.100779  
     593A      7.228377   594A      7.301455   595A      7.311656  
     596A      7.399246   597A      7.412287   598A      7.413333  
     599A      7.481250   600A      7.688898   601A      7.772711  
     602A      7.877464   603A      7.999742   604A      8.168348  
     605A     12.227512   606A     12.735392   607A     13.797976  
     608A     14.003830   609A     14.137600   610A     14.470481  
     611A     14.533354   612A     14.560752   613A     14.739614  
     614A     15.404363  

    Final Occupation by Irrep:
              A 
    DOCC [    40 ]

  @DF-RHF Final Energy:  -462.16705567075570

   => Energetics <=

    Nuclear Repulsion Energy =            521.1355177546935238
    One-Electron Energy =               -1662.1180328144191662
    Two-Electron Energy =                 678.8154593889699981
    Total Energy =                       -462.1670556707557580

Computation Completed


Properties will be evaluated at   0.000000,   0.000000,   0.000000 [a0]

Properties computed using the SCF density matrix

  Nuclear Dipole Moment: [e a0]
     X:     6.1743      Y:    -4.4654      Z:    -1.3492

  Electronic Dipole Moment: [e a0]
     X:    -6.3714      Y:     4.6686      Z:     1.0336

  Dipole Moment: [e a0]
     X:    -0.1971      Y:     0.2032      Z:    -0.3155     Total:     0.4239

  Dipole Moment: [D]
     X:    -0.5009      Y:     0.5165      Z:    -0.8020     Total:     1.0775


*** tstop() called on r282 at Sat Sep 11 00:34:55 2021
Module time:
	user time   =     134.29 seconds =       2.24 minutes
	system time =       2.40 seconds =       0.04 minutes
	total time  =        136 seconds =       2.27 minutes
Total time:
	user time   =     134.29 seconds =       2.24 minutes
	system time =       2.40 seconds =       0.04 minutes
	total time  =        136 seconds =       2.27 minutes

  //>>>>>>>>>>>>>>>>>>>>>>>>>>>>>>>>>>>//
  //            Monomer A HF           //
  //<<<<<<<<<<<<<<<<<<<<<<<<<<<<<<<<<<<//


*** tstart() called on r282
*** at Sat Sep 11 00:34:55 2021

   => Loading Basis Set <=

    Name: JUN-CC-PVTZ
    Role: ORBITAL
    Keyword: BASIS
    atoms 1-3, 12-16  entry C          line   217 file /home/r08543048/miniconda3/share/psi4/basis/jun-cc-pvtz.gbs 
    atoms 4-5         entry O          line   305 file /home/r08543048/miniconda3/share/psi4/basis/jun-cc-pvtz.gbs 
    atoms 6-11, 17-26 entry H          line    36 file /home/r08543048/miniconda3/share/psi4/basis/jun-cc-pvtz.gbs 


         ---------------------------------------------------------
                                   SCF
               by Justin Turney, Rob Parrish, Andy Simmonett
                          and Daniel G. A. Smith
                              RHF Reference
                        1 Threads,  20980 MiB Core
         ---------------------------------------------------------

  ==> Geometry <==

    Molecular point group: c1
    Full point group: C1

    Geometry (in Angstrom), charge = 0, multiplicity = 1:

       Center              X                  Y                   Z               Mass       
    ------------   -----------------  -----------------  -----------------  -----------------
         C           -3.862910692374    -1.448834072373     0.176005421333    12.000000000000
         C           -3.354064692374    -0.135114072373    -0.389819578667    12.000000000000
         C           -1.925404692374     0.142562927627    -0.008745578667    12.000000000000
         O           -1.228709692374    -0.575302072373     0.678883421333    15.994914619570
         O           -1.494346692374     1.309526927627    -0.531767578667    15.994914619570
         H           -3.807748692374    -1.448359072373     1.262510421333     1.007825032230
         H           -4.897554692374    -1.613590072373    -0.119326578667     1.007825032230
         H           -3.262716692374    -2.282233072373    -0.183018578667     1.007825032230
         H           -3.951276692374     0.711095927627    -0.045787578667     1.007825032230
         H           -3.409323692374    -0.115577072373    -1.479545578667     1.007825032230
         H           -0.567110692374     1.435528927627    -0.245295578667     1.007825032230
      Gh(C)           1.563790307626     2.403823927627     0.026734421333    12.000000000000
      Gh(C)           1.627122307626     1.158226927627     0.515544421333    12.000000000000
      Gh(C)           2.041185307626    -0.045848072373    -0.264347578667    12.000000000000
      Gh(C)           3.295674307626    -0.699118072373     0.318794421333    12.000000000000
      Gh(C)           3.689884307626    -1.953998072373    -0.449324578667    12.000000000000
      Gh(H)           1.809084307626     2.608838927627    -1.008315578667     1.007825032230
      Gh(H)           1.277059307626     3.240292927627     0.649564421333     1.007825032230
      Gh(H)           1.374166307626     0.990519927627     1.558664421333     1.007825032230
      Gh(H)           1.226122307626    -0.775493072373    -0.247955578667     1.007825032230
      Gh(H)           2.220190307626     0.231211927627    -1.306884578667     1.007825032230
      Gh(H)           4.114676307626     0.023528927627     0.305348421333     1.007825032230
      Gh(H)           3.112578307626    -0.947779072373     1.366927421333     1.007825032230
      Gh(H)           2.886458307626    -2.690723072373    -0.421206578667     1.007825032230
      Gh(H)           3.891412307626    -1.720023072373    -1.495327578667     1.007825032230
      Gh(H)           4.584074307626    -2.414219072373    -0.030285578667     1.007825032230

  Running in c1 symmetry.

  Rotational constants: A =      0.06020  B =      0.01651  C =      0.01371 [cm^-1]
  Rotational constants: A =   1804.68457  B =    494.84104  C =    410.94234 [MHz]
  Nuclear repulsion =  178.580401692919878

  Charge       = 0
  Multiplicity = 1
  Electrons    = 40
  Nalpha       = 20
  Nbeta        = 20

  ==> Algorithm <==

  SCF Algorithm Type is DF.
  DIIS enabled.
  MOM disabled.
  Fractional occupation disabled.
  Guess Type is SAD.
  Energy threshold   = 1.00e-08
  Density threshold  = 1.00e-08
  Integral threshold = 0.00e+00

  ==> Primary Basis <==

  Basis Set: JUN-CC-PVTZ
    Blend: JUN-CC-PVTZ
    Number of shells: 226
    Number of basis function: 614
    Number of Cartesian functions: 690
    Spherical Harmonics?: true
    Max angular momentum: 3

   => Loading Basis Set <=

    Name: (JUN-CC-PVTZ AUX)
    Role: JKFIT
    Keyword: DF_BASIS_SCF
    atoms 1-3, 12-16  entry C          line   152 file /home/r08543048/miniconda3/share/psi4/basis/jun-cc-pvtz-jkfit.gbs 
    atoms 4-5         entry O          line   272 file /home/r08543048/miniconda3/share/psi4/basis/jun-cc-pvtz-jkfit.gbs 
    atoms 6-11, 17-26 entry H          line    70 file /home/r08543048/miniconda3/share/psi4/basis/jun-cc-pvtz-jkfit.gbs 

  ==> Pre-Iterations <==

   -------------------------------------------------------
    Irrep   Nso     Nmo     Nalpha   Nbeta   Ndocc  Nsocc
   -------------------------------------------------------
     A        614     614       0       0       0       0
   -------------------------------------------------------
    Total     614     614      20      20      20       0
   -------------------------------------------------------

  ==> Integral Setup <==

  ==> DiskDFJK: Density-Fitted J/K Matrices <==

    J tasked:                  Yes
    K tasked:                  Yes
    wK tasked:                  No
    OpenMP threads:              1
    Integrals threads:           1
    Memory [MiB]:            15735
    Algorithm:                Core
    Integral Cache:           LOAD
    Schwarz Cutoff:          1E-12
    Fitting Condition:       1E-10

   => Auxiliary Basis Set <=

  Basis Set: (JUN-CC-PVTZ AUX)
    Blend: JUN-CC-PVTZ-JKFIT
    Number of shells: 450
    Number of basis function: 1430
    Number of Cartesian functions: 1720
    Spherical Harmonics?: true
    Max angular momentum: 4

  Minimum eigenvalue in the overlap matrix is 2.5573965758E-05.
  Using Symmetric Orthogonalization.

  SCF Guess: Superposition of Atomic Densities via on-the-fly atomic UHF.

  ==> Iterations <==

                           Total Energy        Delta E     RMS |[F,P]|

   @DF-RHF iter SAD:  -266.05895633210503   -2.66059e+02   0.00000e+00 
   @DF-RHF iter   1:  -266.75216604544858   -6.93210e-01   1.05761e-03 DIIS
   @DF-RHF iter   2:  -266.89951020917499   -1.47344e-01   6.21643e-04 DIIS
   @DF-RHF iter   3:  -266.94890037408572   -4.93902e-02   1.09787e-04 DIIS
   @DF-RHF iter   4:  -266.95167122105386   -2.77085e-03   5.23045e-05 DIIS
   @DF-RHF iter   5:  -266.95228201503397   -6.10794e-04   1.04936e-05 DIIS
   @DF-RHF iter   6:  -266.95232665761137   -4.46426e-05   5.15630e-06 DIIS
   @DF-RHF iter   7:  -266.95233577897716   -9.12137e-06   1.85705e-06 DIIS
   @DF-RHF iter   8:  -266.95233768256838   -1.90359e-06   6.58507e-07 DIIS
   @DF-RHF iter   9:  -266.95233793851321   -2.55945e-07   1.53356e-07 DIIS
   @DF-RHF iter  10:  -266.95233795105315   -1.25399e-08   4.62377e-08 DIIS
   @DF-RHF iter  11:  -266.95233795180729   -7.54142e-10   1.14999e-08 DIIS
   @DF-RHF iter  12:  -266.95233795186084   -5.35465e-11   2.64405e-09 DIIS
  Energy and wave function converged.


  ==> Post-Iterations <==

    Orbital Energies [Eh]
    ---------------------

    Doubly Occupied:                                                      

       1A    -20.616299     2A    -20.549605     3A    -11.386620  
       4A    -11.248368     5A    -11.221877     6A     -1.463800  
       7A     -1.359283     8A     -1.067999     9A     -0.916229  
      10A     -0.796515    11A     -0.704759    12A     -0.689442  
      13A     -0.662015    14A     -0.596231    15A     -0.594077  
      16A     -0.535145    17A     -0.526527    18A     -0.505486  
      19A     -0.482801    20A     -0.452779  

    Virtual:                                                              

      21A      0.028650    22A      0.041220    23A      0.047564  
      24A      0.052897    25A      0.061288    26A      0.065967  
      27A      0.068220    28A      0.075138    29A      0.081975  
      30A      0.090020    31A      0.096296    32A      0.101208  
      33A      0.104025    34A      0.105402    35A      0.110521  
      36A      0.111340    37A      0.122620    38A      0.123530  
      39A      0.132867    40A      0.137878    41A      0.141649  
      42A      0.151279    43A      0.157663    44A      0.162984  
      45A      0.167595    46A      0.171700    47A      0.175087  
      48A      0.180875    49A      0.182627    50A      0.190160  
      51A      0.197460    52A      0.202615    53A      0.212412  
      54A      0.230165    55A      0.231671    56A      0.239017  
      57A      0.244335    58A      0.250734    59A      0.256682  
      60A      0.267814    61A      0.274518    62A      0.278846  
      63A      0.288665    64A      0.293175    65A      0.295672  
      66A      0.298400    67A      0.304535    68A      0.309834  
      69A      0.315154    70A      0.321498    71A      0.322457  
      72A      0.324660    73A      0.329943    74A      0.332263  
      75A      0.338988    76A      0.345922    77A      0.353679  
      78A      0.357380    79A      0.365427    80A      0.371696  
      81A      0.378543    82A      0.380802    83A      0.383894  
      84A      0.391993    85A      0.397174    86A      0.403152  
      87A      0.410741    88A      0.418904    89A      0.424775  
      90A      0.426480    91A      0.428437    92A      0.434730  
      93A      0.436938    94A      0.445233    95A      0.452817  
      96A      0.457856    97A      0.461377    98A      0.468258  
      99A      0.477363   100A      0.490725   101A      0.498358  
     102A      0.506137   103A      0.513430   104A      0.520525  
     105A      0.527977   106A      0.534396   107A      0.536569  
     108A      0.538151   109A      0.540593   110A      0.547679  
     111A      0.565483   112A      0.567001   113A      0.570765  
     114A      0.577108   115A      0.578084   116A      0.594879  
     117A      0.598204   118A      0.603121   119A      0.619238  
     120A      0.623974   121A      0.630029   122A      0.636665  
     123A      0.641569   124A      0.645899   125A      0.651454  
     126A      0.666423   127A      0.676887   128A      0.677749  
     129A      0.685089   130A      0.701423   131A      0.709048  
     132A      0.713811   133A      0.714417   134A      0.720116  
     135A      0.727587   136A      0.733759   137A      0.738963  
     138A      0.745277   139A      0.746655   140A      0.756331  
     141A      0.762901   142A      0.774317   143A      0.782235  
     144A      0.793996   145A      0.806454   146A      0.812391  
     147A      0.815230   148A      0.818703   149A      0.833715  
     150A      0.842913   151A      0.864584   152A      0.873454  
     153A      0.890729   154A      0.894699   155A      0.903084  
     156A      0.914731   157A      0.921350   158A      0.930199  
     159A      0.940464   160A      0.951851   161A      0.954194  
     162A      0.977145   163A      0.999383   164A      1.015804  
     165A      1.041650   166A      1.051723   167A      1.062852  
     168A      1.070881   169A      1.075928   170A      1.077959  
     171A      1.089691   172A      1.098740   173A      1.117805  
     174A      1.125687   175A      1.135154   176A      1.152177  
     177A      1.156452   178A      1.165740   179A      1.191422  
     180A      1.194039   181A      1.199794   182A      1.202071  
     183A      1.208876   184A      1.223730   185A      1.231698  
     186A      1.244886   187A      1.250421   188A      1.262104  
     189A      1.267899   190A      1.276592   191A      1.284233  
     192A      1.286879   193A      1.293639   194A      1.299473  
     195A      1.311383   196A      1.320863   197A      1.324762  
     198A      1.328536   199A      1.334526   200A      1.342687  
     201A      1.343784   202A      1.353019   203A      1.362049  
     204A      1.366546   205A      1.374478   206A      1.393153  
     207A      1.401676   208A      1.408155   209A      1.411036  
     210A      1.423620   211A      1.425207   212A      1.436501  
     213A      1.440848   214A      1.445053   215A      1.458723  
     216A      1.466619   217A      1.473456   218A      1.476724  
     219A      1.477971   220A      1.482875   221A      1.495993  
     222A      1.501201   223A      1.515460   224A      1.516639  
     225A      1.527642   226A      1.534134   227A      1.541285  
     228A      1.557065   229A      1.562812   230A      1.569303  
     231A      1.576816   232A      1.583327   233A      1.593183  
     234A      1.595643   235A      1.603793   236A      1.617042  
     237A      1.618714   238A      1.620416   239A      1.631917  
     240A      1.641065   241A      1.647929   242A      1.661442  
     243A      1.677109   244A      1.686411   245A      1.698017  
     246A      1.705308   247A      1.716571   248A      1.733889  
     249A      1.750122   250A      1.754308   251A      1.769080  
     252A      1.792378   253A      1.797655   254A      1.805121  
     255A      1.823213   256A      1.830731   257A      1.852502  
     258A      1.873208   259A      1.879015   260A      1.908223  
     261A      1.909966   262A      1.913408   263A      1.919153  
     264A      1.962547   265A      1.966865   266A      1.975624  
     267A      1.995018   268A      2.007367   269A      2.025048  
     270A      2.081909   271A      2.091124   272A      2.110055  
     273A      2.120994   274A      2.151982   275A      2.160628  
     276A      2.177611   277A      2.211435   278A      2.235213  
     279A      2.250756   280A      2.252254   281A      2.286471  
     282A      2.304234   283A      2.326252   284A      2.340118  
     285A      2.363799   286A      2.384246   287A      2.403229  
     288A      2.418839   289A      2.440771   290A      2.450102  
     291A      2.464596   292A      2.478923   293A      2.513367  
     294A      2.516210   295A      2.542178   296A      2.570434  
     297A      2.605658   298A      2.640983   299A      2.642897  
     300A      2.658016   301A      2.695959   302A      2.701000  
     303A      2.750791   304A      2.775050   305A      2.827225  
     306A      2.844987   307A      2.877303   308A      2.895356  
     309A      2.930112   310A      2.952889   311A      2.969927  
     312A      3.020059   313A      3.026399   314A      3.036900  
     315A      3.080408   316A      3.114558   317A      3.124490  
     318A      3.131460   319A      3.181562   320A      3.226215  
     321A      3.244015   322A      3.304319   323A      3.313970  
     324A      3.337952   325A      3.371198   326A      3.374735  
     327A      3.393710   328A      3.442126   329A      3.464495  
     330A      3.466660   331A      3.475063   332A      3.491146  
     333A      3.499193   334A      3.508458   335A      3.511347  
     336A      3.519135   337A      3.526323   338A      3.545334  
     339A      3.554310   340A      3.561111   341A      3.580081  
     342A      3.585230   343A      3.587497   344A      3.600027  
     345A      3.608858   346A      3.615169   347A      3.627441  
     348A      3.639339   349A      3.650435   350A      3.669726  
     351A      3.676104   352A      3.684570   353A      3.690928  
     354A      3.701373   355A      3.707084   356A      3.730159  
     357A      3.753837   358A      3.758295   359A      3.771878  
     360A      3.781009   361A      3.792588   362A      3.792682  
     363A      3.799705   364A      3.810015   365A      3.825963  
     366A      3.846805   367A      3.848613   368A      3.861460  
     369A      3.864900   370A      3.870109   371A      3.879248  
     372A      3.887519   373A      3.891750   374A      3.900734  
     375A      3.910497   376A      3.918893   377A      3.943246  
     378A      3.951165   379A      3.968610   380A      3.973508  
     381A      3.997093   382A      4.012469   383A      4.023356  
     384A      4.054257   385A      4.063664   386A      4.073102  
     387A      4.080094   388A      4.097837   389A      4.104404  
     390A      4.110066   391A      4.117631   392A      4.158398  
     393A      4.179037   394A      4.183624   395A      4.198334  
     396A      4.213460   397A      4.217451   398A      4.220189  
     399A      4.228691   400A      4.229744   401A      4.247401  
     402A      4.250834   403A      4.285052   404A      4.291618  
     405A      4.299902   406A      4.306279   407A      4.321083  
     408A      4.330095   409A      4.343381   410A      4.351951  
     411A      4.367362   412A      4.374759   413A      4.377880  
     414A      4.406610   415A      4.418800   416A      4.433336  
     417A      4.436591   418A      4.442956   419A      4.458152  
     420A      4.472099   421A      4.478591   422A      4.482784  
     423A      4.494732   424A      4.512321   425A      4.525570  
     426A      4.530182   427A      4.541390   428A      4.553684  
     429A      4.566474   430A      4.585284   431A      4.590033  
     432A      4.601584   433A      4.602274   434A      4.611563  
     435A      4.617304   436A      4.626603   437A      4.636345  
     438A      4.645238   439A      4.651950   440A      4.672478  
     441A      4.676825   442A      4.696875   443A      4.701654  
     444A      4.702900   445A      4.714507   446A      4.722381  
     447A      4.729823   448A      4.732865   449A      4.747647  
     450A      4.750071   451A      4.766236   452A      4.773395  
     453A      4.783125   454A      4.802053   455A      4.808100  
     456A      4.816235   457A      4.819397   458A      4.835140  
     459A      4.856211   460A      4.861949   461A      4.865948  
     462A      4.877034   463A      4.883674   464A      4.891063  
     465A      4.903533   466A      4.917253   467A      4.922064  
     468A      4.934799   469A      4.940687   470A      4.956339  
     471A      4.965117   472A      4.970430   473A      4.984116  
     474A      4.990530   475A      5.010091   476A      5.012001  
     477A      5.022103   478A      5.042308   479A      5.047762  
     480A      5.082186   481A      5.104441   482A      5.117920  
     483A      5.132054   484A      5.137350   485A      5.159163  
     486A      5.180233   487A      5.191681   488A      5.201001  
     489A      5.212280   490A      5.247824   491A      5.254227  
     492A      5.262240   493A      5.275901   494A      5.291186  
     495A      5.294317   496A      5.313499   497A      5.317958  
     498A      5.337857   499A      5.345544   500A      5.376009  
     501A      5.402049   502A      5.426710   503A      5.454906  
     504A      5.460469   505A      5.482702   506A      5.491451  
     507A      5.503982   508A      5.551255   509A      5.556367  
     510A      5.613352   511A      5.620716   512A      5.644747  
     513A      5.650723   514A      5.657016   515A      5.665626  
     516A      5.677695   517A      5.693453   518A      5.708799  
     519A      5.732290   520A      5.737777   521A      5.744488  
     522A      5.784772   523A      5.814094   524A      5.824534  
     525A      5.850807   526A      5.867304   527A      5.877254  
     528A      5.896245   529A      5.907612   530A      5.949514  
     531A      5.972161   532A      5.989499   533A      6.005627  
     534A      6.031425   535A      6.049396   536A      6.054590  
     537A      6.063862   538A      6.068111   539A      6.116450  
     540A      6.140262   541A      6.219632   542A      6.231836  
     543A      6.275016   544A      6.297487   545A      6.340062  
     546A      6.355087   547A      6.392061   548A      6.435080  
     549A      6.441506   550A      6.453642   551A      6.465966  
     552A      6.487885   553A      6.498720   554A      6.525674  
     555A      6.553802   556A      6.663337   557A      6.691817  
     558A      6.735312   559A      6.758487   560A      6.780575  
     561A      6.793020   562A      6.819259   563A      6.944097  
     564A      6.989963   565A      6.999216   566A      7.017036  
     567A      7.087904   568A      7.106626   569A      7.210528  
     570A      7.292603   571A      7.299242   572A      7.338076  
     573A      7.376755   574A      7.393402   575A      7.410790  
     576A      7.416481   577A      7.465253   578A      7.477049  
     579A      7.535234   580A      7.571665   581A      7.645937  
     582A      7.682173   583A      7.685799   584A      7.706331  
     585A      7.736586   586A      7.767520   587A      7.823765  
     588A      7.866748   589A      7.886087   590A      7.912368  
     591A      7.974051   592A      7.987204   593A      8.055065  
     594A      8.142668   595A      8.171903   596A      8.328456  
     597A      8.381975   598A      8.644609   599A      8.875274  
     600A      9.491558   601A      9.648708   602A      9.795550  
     603A      9.881932   604A     10.222455   605A     12.226305  
     606A     13.959065   607A     14.130706   608A     14.537523  
     609A     14.731787   610A     42.010597   611A     44.156923  
     612A     45.535917   613A     45.892841   614A     47.310669  

    Final Occupation by Irrep:
              A 
    DOCC [    20 ]

  @DF-RHF Final Energy:  -266.95233795186084

   => Energetics <=

    Nuclear Repulsion Energy =            178.5804016929198781
    One-Electron Energy =                -718.3137622620348566
    Two-Electron Energy =                 272.7810226172541661
    Total Energy =                       -266.9523379518608408

Computation Completed


Properties will be evaluated at   0.000000,   0.000000,   0.000000 [a0]

Properties computed using the SCF density matrix

  Nuclear Dipole Moment: [e a0]
     X:  -182.4237      Y:   -11.5040      Z:    -1.8309

  Electronic Dipole Moment: [e a0]
     X:   181.9626      Y:    11.9265      Z:     1.4121

  Dipole Moment: [e a0]
     X:    -0.4611      Y:     0.4226      Z:    -0.4188     Total:     0.7527

  Dipole Moment: [D]
     X:    -1.1720      Y:     1.0740      Z:    -1.0645     Total:     1.9132


*** tstop() called on r282 at Sat Sep 11 00:36:22 2021
Module time:
	user time   =      85.53 seconds =       1.43 minutes
	system time =       1.17 seconds =       0.02 minutes
	total time  =         87 seconds =       1.45 minutes
Total time:
	user time   =     219.82 seconds =       3.66 minutes
	system time =       3.58 seconds =       0.06 minutes
	total time  =        223 seconds =       3.72 minutes

  //>>>>>>>>>>>>>>>>>>>>>>>>>>>>>>>>>>>//
  //            Monomer B HF           //
  //<<<<<<<<<<<<<<<<<<<<<<<<<<<<<<<<<<<//


*** tstart() called on r282
*** at Sat Sep 11 00:36:22 2021

   => Loading Basis Set <=

    Name: JUN-CC-PVTZ
    Role: ORBITAL
    Keyword: BASIS
    atoms 1-3, 12-16  entry C          line   217 file /home/r08543048/miniconda3/share/psi4/basis/jun-cc-pvtz.gbs 
    atoms 4-5         entry O          line   305 file /home/r08543048/miniconda3/share/psi4/basis/jun-cc-pvtz.gbs 
    atoms 6-11, 17-26 entry H          line    36 file /home/r08543048/miniconda3/share/psi4/basis/jun-cc-pvtz.gbs 


         ---------------------------------------------------------
                                   SCF
               by Justin Turney, Rob Parrish, Andy Simmonett
                          and Daniel G. A. Smith
                              RHF Reference
                        1 Threads,  20980 MiB Core
         ---------------------------------------------------------

  ==> Geometry <==

    Molecular point group: c1
    Full point group: C1

    Geometry (in Angstrom), charge = 0, multiplicity = 1:

       Center              X                  Y                   Z               Mass       
    ------------   -----------------  -----------------  -----------------  -----------------
      Gh(C)          -3.862910692374    -1.448834072373     0.176005421333    12.000000000000
      Gh(C)          -3.354064692374    -0.135114072373    -0.389819578667    12.000000000000
      Gh(C)          -1.925404692374     0.142562927627    -0.008745578667    12.000000000000
      Gh(O)          -1.228709692374    -0.575302072373     0.678883421333    15.994914619570
      Gh(O)          -1.494346692374     1.309526927627    -0.531767578667    15.994914619570
      Gh(H)          -3.807748692374    -1.448359072373     1.262510421333     1.007825032230
      Gh(H)          -4.897554692374    -1.613590072373    -0.119326578667     1.007825032230
      Gh(H)          -3.262716692374    -2.282233072373    -0.183018578667     1.007825032230
      Gh(H)          -3.951276692374     0.711095927627    -0.045787578667     1.007825032230
      Gh(H)          -3.409323692374    -0.115577072373    -1.479545578667     1.007825032230
      Gh(H)          -0.567110692374     1.435528927627    -0.245295578667     1.007825032230
         C            1.563790307626     2.403823927627     0.026734421333    12.000000000000
         C            1.627122307626     1.158226927627     0.515544421333    12.000000000000
         C            2.041185307626    -0.045848072373    -0.264347578667    12.000000000000
         C            3.295674307626    -0.699118072373     0.318794421333    12.000000000000
         C            3.689884307626    -1.953998072373    -0.449324578667    12.000000000000
         H            1.809084307626     2.608838927627    -1.008315578667     1.007825032230
         H            1.277059307626     3.240292927627     0.649564421333     1.007825032230
         H            1.374166307626     0.990519927627     1.558664421333     1.007825032230
         H            1.226122307626    -0.775493072373    -0.247955578667     1.007825032230
         H            2.220190307626     0.231211927627    -1.306884578667     1.007825032230
         H            4.114676307626     0.023528927627     0.305348421333     1.007825032230
         H            3.112578307626    -0.947779072373     1.366927421333     1.007825032230
         H            2.886458307626    -2.690723072373    -0.421206578667     1.007825032230
         H            3.891412307626    -1.720023072373    -1.495327578667     1.007825032230
         H            4.584074307626    -2.414219072373    -0.030285578667     1.007825032230

  Running in c1 symmetry.

  Rotational constants: A =      0.06020  B =      0.01651  C =      0.01371 [cm^-1]
  Rotational constants: A =   1804.68457  B =    494.84104  C =    410.94234 [MHz]
  Nuclear repulsion =  170.525716352367994

  Charge       = 0
  Multiplicity = 1
  Electrons    = 40
  Nalpha       = 20
  Nbeta        = 20

  ==> Algorithm <==

  SCF Algorithm Type is DF.
  DIIS enabled.
  MOM disabled.
  Fractional occupation disabled.
  Guess Type is SAD.
  Energy threshold   = 1.00e-08
  Density threshold  = 1.00e-08
  Integral threshold = 0.00e+00

  ==> Primary Basis <==

  Basis Set: JUN-CC-PVTZ
    Blend: JUN-CC-PVTZ
    Number of shells: 226
    Number of basis function: 614
    Number of Cartesian functions: 690
    Spherical Harmonics?: true
    Max angular momentum: 3

   => Loading Basis Set <=

    Name: (JUN-CC-PVTZ AUX)
    Role: JKFIT
    Keyword: DF_BASIS_SCF
    atoms 1-3, 12-16  entry C          line   152 file /home/r08543048/miniconda3/share/psi4/basis/jun-cc-pvtz-jkfit.gbs 
    atoms 4-5         entry O          line   272 file /home/r08543048/miniconda3/share/psi4/basis/jun-cc-pvtz-jkfit.gbs 
    atoms 6-11, 17-26 entry H          line    70 file /home/r08543048/miniconda3/share/psi4/basis/jun-cc-pvtz-jkfit.gbs 

  ==> Pre-Iterations <==

   -------------------------------------------------------
    Irrep   Nso     Nmo     Nalpha   Nbeta   Ndocc  Nsocc
   -------------------------------------------------------
     A        614     614       0       0       0       0
   -------------------------------------------------------
    Total     614     614      20      20      20       0
   -------------------------------------------------------

  ==> Integral Setup <==

  ==> DiskDFJK: Density-Fitted J/K Matrices <==

    J tasked:                  Yes
    K tasked:                  Yes
    wK tasked:                  No
    OpenMP threads:              1
    Integrals threads:           1
    Memory [MiB]:            15735
    Algorithm:                Core
    Integral Cache:           LOAD
    Schwarz Cutoff:          1E-12
    Fitting Condition:       1E-10

   => Auxiliary Basis Set <=

  Basis Set: (JUN-CC-PVTZ AUX)
    Blend: JUN-CC-PVTZ-JKFIT
    Number of shells: 450
    Number of basis function: 1430
    Number of Cartesian functions: 1720
    Spherical Harmonics?: true
    Max angular momentum: 4

  Minimum eigenvalue in the overlap matrix is 2.5573965758E-05.
  Using Symmetric Orthogonalization.

  SCF Guess: Superposition of Atomic Densities via on-the-fly atomic UHF.

  ==> Iterations <==

                           Total Energy        Delta E     RMS |[F,P]|

   @DF-RHF iter SAD:  -194.45258077187154   -1.94453e+02   0.00000e+00 
   @DF-RHF iter   1:  -194.99855435868471   -5.45974e-01   9.49877e-04 DIIS
   @DF-RHF iter   2:  -195.17525467393165   -1.76700e-01   4.17007e-04 DIIS
   @DF-RHF iter   3:  -195.20968258863147   -3.44279e-02   8.05088e-05 DIIS
   @DF-RHF iter   4:  -195.21202394527850   -2.34136e-03   2.71375e-05 DIIS
   @DF-RHF iter   5:  -195.21219510397725   -1.71159e-04   5.59509e-06 DIIS
   @DF-RHF iter   6:  -195.21220561532709   -1.05113e-05   1.29381e-06 DIIS
   @DF-RHF iter   7:  -195.21220612217923   -5.06852e-07   3.54405e-07 DIIS
   @DF-RHF iter   8:  -195.21220616510823   -4.29290e-08   7.86543e-08 DIIS
   @DF-RHF iter   9:  -195.21220616806585   -2.95762e-09   2.54404e-08 DIIS
   @DF-RHF iter  10:  -195.21220616843615   -3.70306e-10   8.63199e-09 DIIS
  Energy and wave function converged.


  ==> Post-Iterations <==

    Orbital Energies [Eh]
    ---------------------

    Doubly Occupied:                                                      

       1A    -11.231098     2A    -11.222000     3A    -11.219585  
       4A    -11.217490     5A    -11.211418     6A     -1.089749  
       7A     -1.021477     8A     -0.922614     9A     -0.811989  
      10A     -0.756625    11A     -0.651384    12A     -0.616753  
      13A     -0.589304    14A     -0.567167    15A     -0.538655  
      16A     -0.510693    17A     -0.483812    18A     -0.473568  
      19A     -0.469814    20A     -0.355104  

    Virtual:                                                              

      21A      0.032614    22A      0.048535    23A      0.050048  
      24A      0.052436    25A      0.061608    26A      0.062841  
      27A      0.069504    28A      0.078116    29A      0.083376  
      30A      0.090102    31A      0.091798    32A      0.100282  
      33A      0.102801    34A      0.105648    35A      0.112584  
      36A      0.120593    37A      0.123106    38A      0.124785  
      39A      0.127692    40A      0.138712    41A      0.149168  
      42A      0.154752    43A      0.158990    44A      0.164084  
      45A      0.170263    46A      0.176627    47A      0.182975  
      48A      0.186294    49A      0.189469    50A      0.195371  
      51A      0.202315    52A      0.205874    53A      0.211067  
      54A      0.217842    55A      0.227836    56A      0.230675  
      57A      0.235225    58A      0.247007    59A      0.253325  
      60A      0.260965    61A      0.269934    62A      0.273903  
      63A      0.282749    64A      0.292384    65A      0.296545  
      66A      0.302191    67A      0.305620    68A      0.310464  
      69A      0.315186    70A      0.316986    71A      0.321584  
      72A      0.328298    73A      0.333726    74A      0.339355  
      75A      0.345266    76A      0.351125    77A      0.361995  
      78A      0.366683    79A      0.370855    80A      0.377968  
      81A      0.379573    82A      0.382574    83A      0.386949  
      84A      0.393391    85A      0.400549    86A      0.400746  
      87A      0.407268    88A      0.414317    89A      0.420885  
      90A      0.424441    91A      0.427558    92A      0.432629  
      93A      0.447693    94A      0.452921    95A      0.455507  
      96A      0.463638    97A      0.469779    98A      0.474909  
      99A      0.479988   100A      0.485271   101A      0.488883  
     102A      0.496566   103A      0.506573   104A      0.508421  
     105A      0.515200   106A      0.520299   107A      0.523203  
     108A      0.533053   109A      0.536937   110A      0.540444  
     111A      0.545782   112A      0.549429   113A      0.560068  
     114A      0.562981   115A      0.569886   116A      0.578250  
     117A      0.587868   118A      0.592672   119A      0.602358  
     120A      0.612704   121A      0.624664   122A      0.632883  
     123A      0.635149   124A      0.647033   125A      0.654728  
     126A      0.663651   127A      0.674094   128A      0.678090  
     129A      0.683255   130A      0.695843   131A      0.708314  
     132A      0.717410   133A      0.727725   134A      0.735140  
     135A      0.749213   136A      0.751232   137A      0.766287  
     138A      0.778346   139A      0.789633   140A      0.796349  
     141A      0.798900   142A      0.813617   143A      0.817473  
     144A      0.819835   145A      0.825087   146A      0.833790  
     147A      0.843929   148A      0.847849   149A      0.854530  
     150A      0.856862   151A      0.877088   152A      0.885825  
     153A      0.890232   154A      0.893913   155A      0.906324  
     156A      0.918045   157A      0.919932   158A      0.929172  
     159A      0.947328   160A      0.949588   161A      0.955250  
     162A      0.980757   163A      0.986047   164A      0.995820  
     165A      1.004718   166A      1.010034   167A      1.028164  
     168A      1.033993   169A      1.038373   170A      1.040767  
     171A      1.048253   172A      1.058388   173A      1.066099  
     174A      1.081281   175A      1.084584   176A      1.094087  
     177A      1.101578   178A      1.106372   179A      1.114030  
     180A      1.126137   181A      1.134388   182A      1.134804  
     183A      1.155265   184A      1.169386   185A      1.175611  
     186A      1.179310   187A      1.195729   188A      1.201766  
     189A      1.223578   190A      1.232067   191A      1.235717  
     192A      1.240035   193A      1.246416   194A      1.260299  
     195A      1.269315   196A      1.273305   197A      1.280362  
     198A      1.281863   199A      1.292355   200A      1.305195  
     201A      1.312670   202A      1.321491   203A      1.331524  
     204A      1.332525   205A      1.339808   206A      1.347174  
     207A      1.357619   208A      1.368839   209A      1.376540  
     210A      1.390752   211A      1.399753   212A      1.412847  
     213A      1.415037   214A      1.422803   215A      1.430379  
     216A      1.435532   217A      1.441003   218A      1.480060  
     219A      1.488841   220A      1.495444   221A      1.505169  
     222A      1.511319   223A      1.520454   224A      1.527634  
     225A      1.533452   226A      1.543323   227A      1.558469  
     228A      1.568298   229A      1.574737   230A      1.583297  
     231A      1.590065   232A      1.592361   233A      1.602222  
     234A      1.607096   235A      1.623629   236A      1.636694  
     237A      1.649036   238A      1.650961   239A      1.659383  
     240A      1.675507   241A      1.678800   242A      1.692085  
     243A      1.700157   244A      1.717090   245A      1.728084  
     246A      1.737657   247A      1.747732   248A      1.757409  
     249A      1.772485   250A      1.782730   251A      1.786722  
     252A      1.795176   253A      1.807528   254A      1.819444  
     255A      1.839504   256A      1.855371   257A      1.878576  
     258A      1.888141   259A      1.898933   260A      1.902271  
     261A      1.912856   262A      1.934364   263A      1.948884  
     264A      1.950089   265A      1.968100   266A      1.979253  
     267A      1.997903   268A      2.007700   269A      2.020307  
     270A      2.049429   271A      2.050671   272A      2.074668  
     273A      2.096005   274A      2.142226   275A      2.151727  
     276A      2.158673   277A      2.178518   278A      2.198778  
     279A      2.235503   280A      2.286663   281A      2.340064  
     282A      2.373133   283A      2.413725   284A      2.453398  
     285A      2.542343   286A      2.551897   287A      2.582458  
     288A      2.627505   289A      2.642371   290A      2.713737  
     291A      2.757412   292A      2.762675   293A      2.774851  
     294A      2.780968   295A      2.789588   296A      2.807310  
     297A      2.819765   298A      2.837278   299A      2.845358  
     300A      2.851988   301A      2.862827   302A      2.875794  
     303A      2.887889   304A      2.897089   305A      2.921286  
     306A      2.932523   307A      2.964818   308A      2.982201  
     309A      2.983419   310A      3.000148   311A      3.012736  
     312A      3.028777   313A      3.044133   314A      3.055098  
     315A      3.073534   316A      3.086743   317A      3.095517  
     318A      3.104925   319A      3.124234   320A      3.128798  
     321A      3.139621   322A      3.150085   323A      3.169207  
     324A      3.179859   325A      3.194188   326A      3.210203  
     327A      3.216904   328A      3.222380   329A      3.247549  
     330A      3.266841   331A      3.287716   332A      3.307687  
     333A      3.322636   334A      3.325630   335A      3.327795  
     336A      3.352836   337A      3.371524   338A      3.388117  
     339A      3.392401   340A      3.408530   341A      3.416809  
     342A      3.426044   343A      3.442913   344A      3.456121  
     345A      3.466479   346A      3.472975   347A      3.492907  
     348A      3.506394   349A      3.508156   350A      3.522068  
     351A      3.526734   352A      3.541957   353A      3.544965  
     354A      3.561009   355A      3.572326   356A      3.577683  
     357A      3.598473   358A      3.601584   359A      3.606882  
     360A      3.615753   361A      3.622693   362A      3.624551  
     363A      3.627915   364A      3.635730   365A      3.662093  
     366A      3.668004   367A      3.697064   368A      3.699306  
     369A      3.715089   370A      3.725417   371A      3.731565  
     372A      3.755110   373A      3.777525   374A      3.781580  
     375A      3.791872   376A      3.807591   377A      3.811213  
     378A      3.821994   379A      3.831138   380A      3.839664  
     381A      3.856918   382A      3.857622   383A      3.867919  
     384A      3.883808   385A      3.888743   386A      3.897221  
     387A      3.903677   388A      3.917584   389A      3.929296  
     390A      3.952784   391A      3.962057   392A      3.976597  
     393A      3.989461   394A      4.000527   395A      4.004914  
     396A      4.028225   397A      4.035599   398A      4.054417  
     399A      4.059386   400A      4.092981   401A      4.100462  
     402A      4.121178   403A      4.127193   404A      4.159270  
     405A      4.169633   406A      4.178178   407A      4.187011  
     408A      4.193805   409A      4.216918   410A      4.226649  
     411A      4.244053   412A      4.254561   413A      4.261682  
     414A      4.281158   415A      4.293858   416A      4.300056  
     417A      4.314013   418A      4.326691   419A      4.339006  
     420A      4.348985   421A      4.358838   422A      4.370716  
     423A      4.384139   424A      4.389474   425A      4.396079  
     426A      4.402797   427A      4.412828   428A      4.428305  
     429A      4.436726   430A      4.444888   431A      4.460752  
     432A      4.469237   433A      4.475759   434A      4.484390  
     435A      4.500839   436A      4.502940   437A      4.509130  
     438A      4.511910   439A      4.516855   440A      4.536827  
     441A      4.538051   442A      4.571461   443A      4.583758  
     444A      4.590745   445A      4.616232   446A      4.624331  
     447A      4.642622   448A      4.656213   449A      4.663684  
     450A      4.673952   451A      4.687000   452A      4.693422  
     453A      4.711315   454A      4.724014   455A      4.740516  
     456A      4.747971   457A      4.761814   458A      4.766128  
     459A      4.775242   460A      4.785920   461A      4.798501  
     462A      4.805844   463A      4.811315   464A      4.818292  
     465A      4.823894   466A      4.834517   467A      4.840405  
     468A      4.856467   469A      4.873285   470A      4.892047  
     471A      4.904120   472A      4.907401   473A      4.918071  
     474A      4.936230   475A      4.942750   476A      4.957932  
     477A      4.967709   478A      4.987070   479A      4.992254  
     480A      5.002409   481A      5.016290   482A      5.022080  
     483A      5.023743   484A      5.030422   485A      5.050007  
     486A      5.058151   487A      5.072613   488A      5.094497  
     489A      5.119385   490A      5.131484   491A      5.143235  
     492A      5.153917   493A      5.178145   494A      5.192260  
     495A      5.207281   496A      5.235790   497A      5.268970  
     498A      5.276870   499A      5.279342   500A      5.288372  
     501A      5.295294   502A      5.303224   503A      5.312452  
     504A      5.358485   505A      5.366257   506A      5.392695  
     507A      5.409116   508A      5.419265   509A      5.436202  
     510A      5.453009   511A      5.476590   512A      5.493993  
     513A      5.530597   514A      5.546144   515A      5.571710  
     516A      5.575004   517A      5.616578   518A      5.624793  
     519A      5.654005   520A      5.658670   521A      5.697111  
     522A      5.731668   523A      5.754925   524A      5.758156  
     525A      5.766895   526A      5.773128   527A      5.793796  
     528A      5.828429   529A      5.848572   530A      5.866844  
     531A      5.904058   532A      5.921914   533A      5.937841  
     534A      5.952446   535A      5.975638   536A      6.002464  
     537A      6.038661   538A      6.101237   539A      6.132524  
     540A      6.173883   541A      6.206873   542A      6.250337  
     543A      6.260313   544A      6.309607   545A      6.377861  
     546A      6.400303   547A      6.438132   548A      6.439972  
     549A      6.462264   550A      6.473231   551A      6.487251  
     552A      6.507553   553A      6.521979   554A      6.528054  
     555A      6.568129   556A      6.584170   557A      6.634480  
     558A      6.644249   559A      6.719658   560A      6.826091  
     561A      6.832044   562A      6.897256   563A      7.044097  
     564A      7.158189   565A      7.207101   566A      7.298954  
     567A      7.452380   568A      7.504266   569A      7.534771  
     570A      7.604534   571A      7.695802   572A      7.697459  
     573A      7.804767   574A      7.849650   575A      7.866283  
     576A      7.946952   577A      7.987695   578A      8.063370  
     579A      8.183797   580A      8.257575   581A      8.548093  
     582A      8.640175   583A      8.853766   584A      9.174300  
     585A      9.475873   586A      9.682595   587A      9.738091  
     588A      9.812769   589A      9.885880   590A      9.920523  
     591A      9.946159   592A      9.961204   593A      9.985291  
     594A     10.130932   595A     10.365280   596A     10.466071  
     597A     11.105045   598A     11.422254   599A     11.582570  
     600A     11.651330   601A     12.040841   602A     12.724307  
     603A     13.108601   604A     13.748575   605A     13.857155  
     606A     13.978506   607A     14.473272   608A     14.531886  
     609A     15.414210   610A     43.089806   611A     45.093341  
     612A     45.794932   613A     61.365241   614A     61.955611  

    Final Occupation by Irrep:
              A 
    DOCC [    20 ]

  @DF-RHF Final Energy:  -195.21220616843615

   => Energetics <=

    Nuclear Repulsion Energy =            170.5257163523679935
    One-Electron Energy =                -599.5552457448796986
    Two-Electron Energy =                 233.8173232240755226
    Total Energy =                       -195.2122061684361540

Computation Completed


Properties will be evaluated at   0.000000,   0.000000,   0.000000 [a0]

Properties computed using the SCF density matrix

  Nuclear Dipole Moment: [e a0]
     X:   188.5980      Y:     7.0386      Z:     0.4818

  Electronic Dipole Moment: [e a0]
     X:  -188.5331      Y:    -7.2108      Z:    -0.4661

  Dipole Moment: [e a0]
     X:     0.0649      Y:    -0.1722      Z:     0.0157     Total:     0.1847

  Dipole Moment: [D]
     X:     0.1649      Y:    -0.4378      Z:     0.0399     Total:     0.4695


*** tstop() called on r282 at Sat Sep 11 00:37:33 2021
Module time:
	user time   =      69.81 seconds =       1.16 minutes
	system time =       1.07 seconds =       0.02 minutes
	total time  =         71 seconds =       1.18 minutes
Total time:
	user time   =     289.64 seconds =       4.83 minutes
	system time =       4.65 seconds =       0.08 minutes
	total time  =        294 seconds =       4.90 minutes
  Constructing Basis Sets for SAPT...

   => Loading Basis Set <=

    Name: (JUN-CC-PVTZ AUX)
    Role: RIFIT
    Keyword: DF_BASIS_SAPT
    atoms 1-3, 12-16  entry C          line   132 file /home/r08543048/miniconda3/share/psi4/basis/jun-cc-pvtz-ri.gbs 
    atoms 4-5         entry O          line   244 file /home/r08543048/miniconda3/share/psi4/basis/jun-cc-pvtz-ri.gbs 
    atoms 6-11, 17-26 entry H          line    30 file /home/r08543048/miniconda3/share/psi4/basis/jun-cc-pvtz-ri.gbs 


  //>>>>>>>>>>>>>>>>>>>>>>>>>>>>>>>>>>>//
  //               SAPT0               //
  //<<<<<<<<<<<<<<<<<<<<<<<<<<<<<<<<<<<//


*** tstart() called on r282
*** at Sat Sep 11 00:37:33 2021

        SAPT0  
    Ed Hohenstein
     6 June 2009

      Orbital Information
  --------------------------
    NSO        =       614
    NMO        =       614
    NRI        =      1450
    NOCC A     =        20
    NOCC B     =        20
    FOCC A     =         0
    FOCC B     =         0
    NVIR A     =       594
    NVIR B     =       594

    Elst10,r            =    -0.012357373322 [Eh]
    Exch10              =     0.015080560722 [Eh]
    Exch10 (S^2)        =     0.014951496683 [Eh]

    Iter     Energy [mEh]          dE [mEh]         Residual      Time [s]
       1      -0.97943724       0.979437238       4.604889317             2
       2      -1.18092257       0.201485330       1.851918572             4
       3      -1.19695151       0.016028941       0.629829203             6
       4      -1.19200507      -0.004946442       0.272571465             8
       5      -1.19034568      -0.001659386       0.086728248            10
       6      -1.19082100       0.000475324       0.040170541            12
       7      -1.19108939       0.000268384       0.010472900            14
       8      -1.19102553      -0.000063860       0.003551853            16
       9      -1.19100658      -0.000018946       0.000824822            18
      10      -1.19101182       0.000005239       0.000231882            20
      11      -1.19101214       0.000000316       0.000057326            21
      12      -1.19101184      -0.000000300       0.000013478            23
      13      -1.19101184       0.000000000       0.000003860            25
      14      -1.19101185       0.000000014       0.000001478            27
      15      -1.19101185      -0.000000000       0.000000623            29

    CHF Iterations converged


    Iter     Energy [mEh]          dE [mEh]         Residual      Time [s]
       1      -6.18104681       6.181046806      14.404789342             2
       2      -7.70702791       1.525981100       6.372157842             4
       3      -7.99361194       0.286584029       1.690722644             6
       4      -7.97109928      -0.022512651       0.542412362             8
       5      -7.95292171      -0.018177573       0.143437415             9
       6      -7.95375853       0.000836815       0.058615784            11
       7      -7.95528465       0.001526126       0.018322419            13
       8      -7.95497808      -0.000306577       0.005305848            15
       9      -7.95491944      -0.000058636       0.001476507            17
      10      -7.95493442       0.000014978       0.000385626            19
      11      -7.95493816       0.000003748       0.000090612            21
      12      -7.95493684      -0.000001324       0.000023671            23
      13      -7.95493675      -0.000000087       0.000006761            25
      14      -7.95493683       0.000000078       0.000001855            26
      15      -7.95493684       0.000000004       0.000000538            28

    CHF Iterations converged

    Ind20,r (A<-B)      =    -0.001191011850 [Eh]
    Ind20,r (B<-A)      =    -0.007954936835 [Eh]
    Ind20,r             =    -0.009145948686 [Eh]
    Exch-Ind20,r (A<-B) =     0.000956827736 [Eh]
    Exch-Ind20,r (B<-A) =     0.005166323196 [Eh]
    Exch-Ind20,r        =     0.006123150931 [Eh]
    Disp20              =    -0.009275692590 [Eh]
    Disp20 (SS)         =    -0.004637846295 [Eh]
    Disp20 (OS)         =    -0.004637846295 [Eh]
    Exch-Disp20         =     0.001388256046 [Eh]
    Exch-Disp20 (SS)    =     0.000902581910 [Eh]
    Exch-Disp20 (OS)    =     0.000485674136 [Eh]

    SAPT Results 
  --------------------------------------------------------------------------------------------------------
    Electrostatics                -12.35737332 [mEh]      -7.75436883 [kcal/mol]     -32.44427919 [kJ/mol]
      Elst10,r                    -12.35737332 [mEh]      -7.75436883 [kcal/mol]     -32.44427919 [kJ/mol]

    Exchange                       15.08056072 [mEh]       9.46319472 [kcal/mol]      39.59400672 [kJ/mol]
      Exch10                       15.08056072 [mEh]       9.46319472 [kcal/mol]      39.59400672 [kJ/mol]
      Exch10(S^2)                  14.95149668 [mEh]       9.38220582 [kcal/mol]      39.25514913 [kJ/mol]

    Induction                      -5.23473786 [mEh]      -3.28484760 [kcal/mol]     -13.74380235 [kJ/mol]
      Ind20,r                      -9.14594869 [mEh]      -5.73916945 [kcal/mol]     -24.01268497 [kJ/mol]
      Exch-Ind20,r                  6.12315093 [mEh]       3.84233522 [kcal/mol]      16.07633056 [kJ/mol]
      delta HF,r (2)               -2.21194010 [mEh]      -1.38801337 [kcal/mol]      -5.80744794 [kJ/mol]

    Dispersion                     -7.88743654 [mEh]      -4.94944116 [kcal/mol]     -20.70846179 [kJ/mol]
      Disp20                       -9.27569259 [mEh]      -5.82058498 [kcal/mol]     -24.35332754 [kJ/mol]
      Exch-Disp20                   1.38825605 [mEh]       0.87114382 [kcal/mol]       3.64486575 [kJ/mol]
      Disp20 (SS)                  -4.63784630 [mEh]      -2.91029249 [kcal/mol]     -12.17666377 [kJ/mol]
      Disp20 (OS)                  -4.63784630 [mEh]      -2.91029249 [kcal/mol]     -12.17666377 [kJ/mol]
      Exch-Disp20 (SS)              0.90258191 [mEh]       0.56637870 [kcal/mol]       2.36972848 [kJ/mol]
      Exch-Disp20 (OS)              0.48567414 [mEh]       0.30476512 [kcal/mol]       1.27513727 [kJ/mol]

  Total HF                         -2.51155046 [mEh]      -1.57602171 [kcal/mol]      -6.59407482 [kJ/mol]
  Total SAPT0                     -10.39898700 [mEh]      -6.52546286 [kcal/mol]     -27.30253662 [kJ/mol]

  Special recipe for scaled SAPT0 (see Manual):
    Electrostatics sSAPT0         -12.35737332 [mEh]      -7.75436883 [kcal/mol]     -32.44427919 [kJ/mol]
    Exchange sSAPT0                15.08056072 [mEh]       9.46319472 [kcal/mol]      39.59400672 [kJ/mol]
    Induction sSAPT0               -5.07479667 [mEh]      -3.18448299 [kcal/mol]     -13.32387682 [kJ/mol]
    Dispersion sSAPT0              -7.85117428 [mEh]      -4.92668624 [kcal/mol]     -20.61325523 [kJ/mol]
  Total sSAPT0                    -10.20278355 [mEh]      -6.40234334 [kcal/mol]     -26.78740452 [kJ/mol]
  --------------------------------------------------------------------------------------------------------

*** tstop() called on r282 at Sat Sep 11 00:41:54 2021
Module time:
	user time   =     225.63 seconds =       3.76 minutes
	system time =      33.58 seconds =       0.56 minutes
	total time  =        261 seconds =       4.35 minutes
Total time:
	user time   =     515.45 seconds =       8.59 minutes
	system time =      38.24 seconds =       0.64 minutes
	total time  =        555 seconds =       9.25 minutes

    Psi4 stopped on: Saturday, 11 September 2021 12:41AM
    Psi4 wall time for execution: 0:09:15.13

*** Psi4 exiting successfully. Buy a developer a beer!
