
    -----------------------------------------------------------------------
          Psi4: An Open-Source Ab Initio Electronic Structure Package
                               Psi4 1.3.2 release

                         Git: Rev {HEAD} ecbda83 


    R. M. Parrish, L. A. Burns, D. G. A. Smith, A. C. Simmonett,
    A. E. DePrince III, E. G. Hohenstein, U. Bozkaya, A. Yu. Sokolov,
    R. Di Remigio, R. M. Richard, J. F. Gonthier, A. M. James,
    H. R. McAlexander, A. Kumar, M. Saitow, X. Wang, B. P. Pritchard,
    P. Verma, H. F. Schaefer III, K. Patkowski, R. A. King, E. F. Valeev,
    F. A. Evangelista, J. M. Turney, T. D. Crawford, and C. D. Sherrill,
    J. Chem. Theory Comput. 13(7) pp 3185--3197 (2017).
    (doi: 10.1021/acs.jctc.7b00174)


                         Additional Contributions by
    P. Kraus, H. Kruse, M. H. Lechner, M. C. Schieber, R. A. Shaw,
    A. Alenaizan, R. Galvelis, Z. L. Glick, S. Lehtola, and J. P. Misiewicz

    -----------------------------------------------------------------------


    Psi4 started on: Saturday, 11 September 2021 12:17AM

    Process ID: 57366
    Host:       r282
    PSIDATADIR: /home/r08543048/miniconda3/share/psi4
    Memory:     500.0 MiB
    Threads:    1
    
  ==> Input File <==

--------------------------------------------------------------------------
# Any line starting with the # character is a comment line
#! Sample  computation

memory 22 gb

molecule Dimer {
0 1
 C   2.114912   -0.013676   -0.049896
 O   1.415108    1.096836   -0.312864
 O   1.656165   -1.058011    0.350571
 H   3.175735    0.158575   -0.251676
 H   0.471932    0.914808   -0.115610
  
  
  
  
  
  
  
  
  
  
  
    
    
 --
0 1
 C   -1.796490    1.239140    0.096435
 C   -1.607893   -0.029887    0.480178
 C   -1.697725   -1.214860   -0.423868
 H   -1.726940    2.056140    0.801494
 H   -2.041900    1.480660   -0.930465
 H   -1.366923   -0.227839    1.519735
 H   -2.470104   -1.901839   -0.075641
 H   -1.935656   -0.915291   -1.443706
 H   -0.753157   -1.760114   -0.422879
   
   
   
   
   
   




units angstrom

no_reorient
symmetry c1
}

set globals{
  basis jun-cc-pvtz
}

energy('sapt0')


--------------------------------------------------------------------------

  Memory set to  20.489 GiB by Python driver.

  //>>>>>>>>>>>>>>>>>>>>>>>>>>>>>>>>>>>//
  //              Dimer HF             //
  //<<<<<<<<<<<<<<<<<<<<<<<<<<<<<<<<<<<//


*** tstart() called on r282
*** at Sat Sep 11 00:17:48 2021

   => Loading Basis Set <=

    Name: JUN-CC-PVTZ
    Role: ORBITAL
    Keyword: BASIS
    atoms 1, 6-8    entry C          line   217 file /home/r08543048/miniconda3/share/psi4/basis/jun-cc-pvtz.gbs 
    atoms 2-3       entry O          line   305 file /home/r08543048/miniconda3/share/psi4/basis/jun-cc-pvtz.gbs 
    atoms 4-5, 9-14 entry H          line    36 file /home/r08543048/miniconda3/share/psi4/basis/jun-cc-pvtz.gbs 


         ---------------------------------------------------------
                                   SCF
               by Justin Turney, Rob Parrish, Andy Simmonett
                          and Daniel G. A. Smith
                              RHF Reference
                        1 Threads,  20980 MiB Core
         ---------------------------------------------------------

  ==> Geometry <==

    Molecular point group: c1
    Full point group: C1

    Geometry (in Angstrom), charge = 0, multiplicity = 1:

       Center              X                  Y                   Z               Mass       
    ------------   -----------------  -----------------  -----------------  -----------------
         C            2.040190934891    -0.015869936754    -0.060246322167    12.000000000000
         O            1.340386934891     1.094642063246    -0.323214322167    15.994914619570
         O            1.581443934891    -1.060204936754     0.340220677833    15.994914619570
         H            3.101013934891     0.156381063246    -0.262026322167     1.007825032230
         H            0.397210934891     0.912614063246    -0.125960322167     1.007825032230
         C           -1.871211065109     1.236946063246     0.086084677833    12.000000000000
         C           -1.682614065109    -0.032080936754     0.469827677833    12.000000000000
         C           -1.772446065109    -1.217053936754    -0.434218322167    12.000000000000
         H           -1.801661065109     2.053946063246     0.791143677833     1.007825032230
         H           -2.116621065109     1.478466063246    -0.940815322167     1.007825032230
         H           -1.441644065109    -0.230032936754     1.509384677833     1.007825032230
         H           -2.544825065109    -1.904032936754    -0.085991322167     1.007825032230
         H           -2.010377065109    -0.917484936754    -1.454056322167     1.007825032230
         H           -0.827878065109    -1.762307936754    -0.433229322167     1.007825032230

  Running in c1 symmetry.

  Rotational constants: A =      0.16357  B =      0.06060  C =      0.04792 [cm^-1]
  Rotational constants: A =   4903.78402  B =   1816.73445  C =   1436.72712 [MHz]
  Nuclear repulsion =  223.556810765222508

  Charge       = 0
  Multiplicity = 1
  Electrons    = 48
  Nalpha       = 24
  Nbeta        = 24

  ==> Algorithm <==

  SCF Algorithm Type is DF.
  DIIS enabled.
  MOM disabled.
  Fractional occupation disabled.
  Guess Type is SAD.
  Energy threshold   = 1.00e-08
  Density threshold  = 1.00e-08
  Integral threshold = 0.00e+00

  ==> Primary Basis <==

  Basis Set: JUN-CC-PVTZ
    Blend: JUN-CC-PVTZ
    Number of shells: 126
    Number of basis function: 346
    Number of Cartesian functions: 390
    Spherical Harmonics?: true
    Max angular momentum: 3

   => Loading Basis Set <=

    Name: (JUN-CC-PVTZ AUX)
    Role: JKFIT
    Keyword: DF_BASIS_SCF
    atoms 1, 6-8    entry C          line   152 file /home/r08543048/miniconda3/share/psi4/basis/jun-cc-pvtz-jkfit.gbs 
    atoms 2-3       entry O          line   272 file /home/r08543048/miniconda3/share/psi4/basis/jun-cc-pvtz-jkfit.gbs 
    atoms 4-5, 9-14 entry H          line    70 file /home/r08543048/miniconda3/share/psi4/basis/jun-cc-pvtz-jkfit.gbs 

  ==> Pre-Iterations <==

   -------------------------------------------------------
    Irrep   Nso     Nmo     Nalpha   Nbeta   Ndocc  Nsocc
   -------------------------------------------------------
     A        346     346       0       0       0       0
   -------------------------------------------------------
    Total     346     346      24      24      24       0
   -------------------------------------------------------

  ==> Integral Setup <==

  ==> DiskDFJK: Density-Fitted J/K Matrices <==

    J tasked:                  Yes
    K tasked:                  Yes
    wK tasked:                  No
    OpenMP threads:              1
    Integrals threads:           1
    Memory [MiB]:            15735
    Algorithm:                Core
    Integral Cache:           SAVE
    Schwarz Cutoff:          1E-12
    Fitting Condition:       1E-10

   => Auxiliary Basis Set <=

  Basis Set: (JUN-CC-PVTZ AUX)
    Blend: JUN-CC-PVTZ-JKFIT
    Number of shells: 254
    Number of basis function: 810
    Number of Cartesian functions: 976
    Spherical Harmonics?: true
    Max angular momentum: 4

  Minimum eigenvalue in the overlap matrix is 3.8648906512E-05.
  Using Symmetric Orthogonalization.

  SCF Guess: Superposition of Atomic Densities via on-the-fly atomic UHF.

  ==> Iterations <==

                           Total Energy        Delta E     RMS |[F,P]|

   @DF-RHF iter SAD:  -304.47634265946419   -3.04476e+02   0.00000e+00 
   @DF-RHF iter   1:  -305.74275700040874   -1.26641e+00   1.95839e-03 DIIS
   @DF-RHF iter   2:  -305.90243148343575   -1.59674e-01   1.16196e-03 DIIS
   @DF-RHF iter   3:  -305.95912606607544   -5.66946e-02   2.06856e-04 DIIS
   @DF-RHF iter   4:  -305.96200784063575   -2.88177e-03   8.84553e-05 DIIS
   @DF-RHF iter   5:  -305.96255122683067   -5.43386e-04   2.03952e-05 DIIS
   @DF-RHF iter   6:  -305.96259532235791   -4.40955e-05   9.48055e-06 DIIS
   @DF-RHF iter   7:  -305.96260706269231   -1.17403e-05   3.22116e-06 DIIS
   @DF-RHF iter   8:  -305.96260910002820   -2.03734e-06   1.17089e-06 DIIS
   @DF-RHF iter   9:  -305.96260935614629   -2.56118e-07   3.02919e-07 DIIS
   @DF-RHF iter  10:  -305.96260937114317   -1.49969e-08   1.02858e-07 DIIS
   @DF-RHF iter  11:  -305.96260937246103   -1.31786e-09   3.70549e-08 DIIS
   @DF-RHF iter  12:  -305.96260937261184   -1.50806e-10   1.05631e-08 DIIS
   @DF-RHF iter  13:  -305.96260937262582   -1.39835e-11   3.11636e-09 DIIS
  Energy and wave function converged.


  ==> Post-Iterations <==

    Orbital Energies [Eh]
    ---------------------

    Doubly Occupied:                                                      

       1A    -20.612459     2A    -20.557715     3A    -11.389107  
       4A    -11.250250     5A    -11.231597     6A    -11.222376  
       7A     -1.463331     8A     -1.364850     9A     -1.078456  
      10A     -0.942456    11A     -0.886161    12A     -0.769834  
      13A     -0.714594    14A     -0.704439    15A     -0.651404  
      16A     -0.625757    17A     -0.596112    18A     -0.593992  
      19A     -0.568997    20A     -0.529393    21A     -0.503942  
      22A     -0.485194    23A     -0.465432    24A     -0.375687  

    Virtual:                                                              

      25A      0.052560    26A      0.057324    27A      0.062614  
      28A      0.063904    29A      0.082711    30A      0.085319  
      31A      0.089491    32A      0.094998    33A      0.101131  
      34A      0.116877    35A      0.122065    36A      0.125557  
      37A      0.139457    38A      0.162899    39A      0.168074  
      40A      0.175542    41A      0.190034    42A      0.197522  
      43A      0.202771    44A      0.211345    45A      0.225166  
      46A      0.240590    47A      0.253219    48A      0.259274  
      49A      0.264375    50A      0.276416    51A      0.276997  
      52A      0.288488    53A      0.296469    54A      0.308149  
      55A      0.317599    56A      0.329473    57A      0.335384  
      58A      0.342034    59A      0.347614    60A      0.355094  
      61A      0.361133    62A      0.375254    63A      0.385759  
      64A      0.388914    65A      0.392057    66A      0.400123  
      67A      0.422498    68A      0.432438    69A      0.442748  
      70A      0.472203    71A      0.480884    72A      0.482587  
      73A      0.492124    74A      0.511448    75A      0.517179  
      76A      0.536327    77A      0.542143    78A      0.552953  
      79A      0.565306    80A      0.580341    81A      0.588645  
      82A      0.602287    83A      0.611383    84A      0.625052  
      85A      0.655085    86A      0.678192    87A      0.694273  
      88A      0.711827    89A      0.717835    90A      0.727463  
      91A      0.739982    92A      0.740373    93A      0.751563  
      94A      0.772494    95A      0.779525    96A      0.798268  
      97A      0.801691    98A      0.807803    99A      0.818581  
     100A      0.837808   101A      0.844209   102A      0.873365  
     103A      0.876098   104A      0.893056   105A      0.897427  
     106A      0.919146   107A      0.935709   108A      0.950187  
     109A      0.957183   110A      0.966413   111A      0.984901  
     112A      1.002061   113A      1.027684   114A      1.039379  
     115A      1.051832   116A      1.067257   117A      1.085078  
     118A      1.091975   119A      1.107170   120A      1.114308  
     121A      1.141664   122A      1.149457   123A      1.175268  
     124A      1.196467   125A      1.215167   126A      1.224289  
     127A      1.235127   128A      1.255331   129A      1.289889  
     130A      1.319345   131A      1.325697   132A      1.339451  
     133A      1.350793   134A      1.360080   135A      1.375609  
     136A      1.384421   137A      1.391390   138A      1.403629  
     139A      1.420104   140A      1.422571   141A      1.456446  
     142A      1.475959   143A      1.479505   144A      1.490995  
     145A      1.522888   146A      1.537561   147A      1.560115  
     148A      1.590062   149A      1.603167   150A      1.618833  
     151A      1.630464   152A      1.655754   153A      1.673102  
     154A      1.724672   155A      1.739448   156A      1.750350  
     157A      1.773100   158A      1.829735   159A      1.841524  
     160A      1.852682   161A      1.883387   162A      1.905102  
     163A      1.953045   164A      2.021585   165A      2.055388  
     166A      2.135052   167A      2.186908   168A      2.198744  
     169A      2.208015   170A      2.254970   171A      2.315700  
     172A      2.351531   173A      2.379320   174A      2.410430  
     175A      2.486488   176A      2.562646   177A      2.590606  
     178A      2.654433   179A      2.714951   180A      2.726013  
     181A      2.751206   182A      2.776134   183A      2.795233  
     184A      2.806634   185A      2.835606   186A      2.864500  
     187A      2.880869   188A      2.911705   189A      2.919896  
     190A      2.975100   191A      3.020398   192A      3.054276  
     193A      3.070178   194A      3.084622   195A      3.110730  
     196A      3.114668   197A      3.126952   198A      3.164256  
     199A      3.182603   200A      3.185907   201A      3.223576  
     202A      3.240042   203A      3.260390   204A      3.270843  
     205A      3.284713   206A      3.304044   207A      3.322747  
     208A      3.335305   209A      3.351105   210A      3.357547  
     211A      3.377324   212A      3.397817   213A      3.429633  
     214A      3.438193   215A      3.461806   216A      3.483056  
     217A      3.490895   218A      3.499788   219A      3.503423  
     220A      3.519923   221A      3.540136   222A      3.557257  
     223A      3.587084   224A      3.597562   225A      3.622275  
     226A      3.630644   227A      3.654639   228A      3.669811  
     229A      3.702240   230A      3.732778   231A      3.734410  
     232A      3.761448   233A      3.767683   234A      3.790288  
     235A      3.808084   236A      3.836009   237A      3.843691  
     238A      3.862121   239A      3.891204   240A      3.910629  
     241A      3.929795   242A      3.941906   243A      3.979971  
     244A      3.994904   245A      4.018760   246A      4.039307  
     247A      4.078958   248A      4.086932   249A      4.136975  
     250A      4.177938   251A      4.195605   252A      4.216850  
     253A      4.247606   254A      4.260625   255A      4.285165  
     256A      4.301052   257A      4.308230   258A      4.313421  
     259A      4.333269   260A      4.380656   261A      4.388639  
     262A      4.397353   263A      4.410860   264A      4.432855  
     265A      4.457996   266A      4.484071   267A      4.497121  
     268A      4.516267   269A      4.580052   270A      4.596638  
     271A      4.618217   272A      4.631752   273A      4.652489  
     274A      4.683467   275A      4.691535   276A      4.728322  
     277A      4.752481   278A      4.788884   279A      4.811950  
     280A      4.860708   281A      4.893636   282A      4.908601  
     283A      4.984592   284A      5.020638   285A      5.044390  
     286A      5.052388   287A      5.058440   288A      5.166967  
     289A      5.183470   290A      5.204976   291A      5.217647  
     292A      5.239131   293A      5.304883   294A      5.319572  
     295A      5.340964   296A      5.358200   297A      5.378296  
     298A      5.451740   299A      5.499500   300A      5.575075  
     301A      5.613842   302A      5.635262   303A      5.649440  
     304A      5.662019   305A      5.675357   306A      5.695826  
     307A      5.760957   308A      5.774904   309A      5.809512  
     310A      5.862146   311A      5.879183   312A      5.908929  
     313A      5.959736   314A      6.052701   315A      6.090862  
     316A      6.202906   317A      6.252676   318A      6.362694  
     319A      6.439186   320A      6.464902   321A      6.513228  
     322A      6.517451   323A      6.685876   324A      6.747262  
     325A      6.832590   326A      6.946933   327A      6.976537  
     328A      7.138614   329A      7.177703   330A      7.228397  
     331A      7.235689   332A      7.328599   333A      7.366589  
     334A      7.412665   335A      7.484430   336A      7.605175  
     337A      7.692505   338A      7.789968   339A      7.949522  
     340A      8.143817   341A     12.412101   342A     12.573977  
     343A     13.695004   344A     14.591126   345A     14.654577  
     346A     15.301877  

    Final Occupation by Irrep:
              A 
    DOCC [    24 ]

  @DF-RHF Final Energy:  -305.96260937262582

   => Energetics <=

    Nuclear Repulsion Energy =            223.5568107652225081
    One-Electron Energy =                -859.8717667511341460
    Two-Electron Energy =                 330.3523466132858175
    Total Energy =                       -305.9626093726258205

Computation Completed


Properties will be evaluated at   0.000000,   0.000000,   0.000000 [a0]

Properties computed using the SCF density matrix

  Nuclear Dipole Moment: [e a0]
     X:    -6.7777      Y:    -0.1990      Z:    -0.9388

  Electronic Dipole Moment: [e a0]
     X:     6.6081      Y:     0.6038      Z:     0.7653

  Dipole Moment: [e a0]
     X:    -0.1696      Y:     0.4047      Z:    -0.1735     Total:     0.4719

  Dipole Moment: [D]
     X:    -0.4311      Y:     1.0288      Z:    -0.4411     Total:     1.1995


*** tstop() called on r282 at Sat Sep 11 00:18:07 2021
Module time:
	user time   =      18.33 seconds =       0.31 minutes
	system time =       0.54 seconds =       0.01 minutes
	total time  =         19 seconds =       0.32 minutes
Total time:
	user time   =      18.33 seconds =       0.31 minutes
	system time =       0.54 seconds =       0.01 minutes
	total time  =         19 seconds =       0.32 minutes

  //>>>>>>>>>>>>>>>>>>>>>>>>>>>>>>>>>>>//
  //            Monomer A HF           //
  //<<<<<<<<<<<<<<<<<<<<<<<<<<<<<<<<<<<//


*** tstart() called on r282
*** at Sat Sep 11 00:18:07 2021

   => Loading Basis Set <=

    Name: JUN-CC-PVTZ
    Role: ORBITAL
    Keyword: BASIS
    atoms 1, 6-8    entry C          line   217 file /home/r08543048/miniconda3/share/psi4/basis/jun-cc-pvtz.gbs 
    atoms 2-3       entry O          line   305 file /home/r08543048/miniconda3/share/psi4/basis/jun-cc-pvtz.gbs 
    atoms 4-5, 9-14 entry H          line    36 file /home/r08543048/miniconda3/share/psi4/basis/jun-cc-pvtz.gbs 


         ---------------------------------------------------------
                                   SCF
               by Justin Turney, Rob Parrish, Andy Simmonett
                          and Daniel G. A. Smith
                              RHF Reference
                        1 Threads,  20980 MiB Core
         ---------------------------------------------------------

  ==> Geometry <==

    Molecular point group: c1
    Full point group: C1

    Geometry (in Angstrom), charge = 0, multiplicity = 1:

       Center              X                  Y                   Z               Mass       
    ------------   -----------------  -----------------  -----------------  -----------------
         C            2.040190934891    -0.015869936754    -0.060246322167    12.000000000000
         O            1.340386934891     1.094642063246    -0.323214322167    15.994914619570
         O            1.581443934891    -1.060204936754     0.340220677833    15.994914619570
         H            3.101013934891     0.156381063246    -0.262026322167     1.007825032230
         H            0.397210934891     0.912614063246    -0.125960322167     1.007825032230
      Gh(C)          -1.871211065109     1.236946063246     0.086084677833    12.000000000000
      Gh(C)          -1.682614065109    -0.032080936754     0.469827677833    12.000000000000
      Gh(C)          -1.772446065109    -1.217053936754    -0.434218322167    12.000000000000
      Gh(H)          -1.801661065109     2.053946063246     0.791143677833     1.007825032230
      Gh(H)          -2.116621065109     1.478466063246    -0.940815322167     1.007825032230
      Gh(H)          -1.441644065109    -0.230032936754     1.509384677833     1.007825032230
      Gh(H)          -2.544825065109    -1.904032936754    -0.085991322167     1.007825032230
      Gh(H)          -2.010377065109    -0.917484936754    -1.454056322167     1.007825032230
      Gh(H)          -0.827878065109    -1.762307936754    -0.433229322167     1.007825032230

  Running in c1 symmetry.

  Rotational constants: A =      0.16357  B =      0.06060  C =      0.04792 [cm^-1]
  Rotational constants: A =   4903.78402  B =   1816.73445  C =   1436.72712 [MHz]
  Nuclear repulsion =   70.013195041030400

  Charge       = 0
  Multiplicity = 1
  Electrons    = 24
  Nalpha       = 12
  Nbeta        = 12

  ==> Algorithm <==

  SCF Algorithm Type is DF.
  DIIS enabled.
  MOM disabled.
  Fractional occupation disabled.
  Guess Type is SAD.
  Energy threshold   = 1.00e-08
  Density threshold  = 1.00e-08
  Integral threshold = 0.00e+00

  ==> Primary Basis <==

  Basis Set: JUN-CC-PVTZ
    Blend: JUN-CC-PVTZ
    Number of shells: 126
    Number of basis function: 346
    Number of Cartesian functions: 390
    Spherical Harmonics?: true
    Max angular momentum: 3

   => Loading Basis Set <=

    Name: (JUN-CC-PVTZ AUX)
    Role: JKFIT
    Keyword: DF_BASIS_SCF
    atoms 1, 6-8    entry C          line   152 file /home/r08543048/miniconda3/share/psi4/basis/jun-cc-pvtz-jkfit.gbs 
    atoms 2-3       entry O          line   272 file /home/r08543048/miniconda3/share/psi4/basis/jun-cc-pvtz-jkfit.gbs 
    atoms 4-5, 9-14 entry H          line    70 file /home/r08543048/miniconda3/share/psi4/basis/jun-cc-pvtz-jkfit.gbs 

  ==> Pre-Iterations <==

   -------------------------------------------------------
    Irrep   Nso     Nmo     Nalpha   Nbeta   Ndocc  Nsocc
   -------------------------------------------------------
     A        346     346       0       0       0       0
   -------------------------------------------------------
    Total     346     346      12      12      12       0
   -------------------------------------------------------

  ==> Integral Setup <==

  ==> DiskDFJK: Density-Fitted J/K Matrices <==

    J tasked:                  Yes
    K tasked:                  Yes
    wK tasked:                  No
    OpenMP threads:              1
    Integrals threads:           1
    Memory [MiB]:            15735
    Algorithm:                Core
    Integral Cache:           LOAD
    Schwarz Cutoff:          1E-12
    Fitting Condition:       1E-10

   => Auxiliary Basis Set <=

  Basis Set: (JUN-CC-PVTZ AUX)
    Blend: JUN-CC-PVTZ-JKFIT
    Number of shells: 254
    Number of basis function: 810
    Number of Cartesian functions: 976
    Spherical Harmonics?: true
    Max angular momentum: 4

  Minimum eigenvalue in the overlap matrix is 3.8648906512E-05.
  Using Symmetric Orthogonalization.

  SCF Guess: Superposition of Atomic Densities via on-the-fly atomic UHF.

  ==> Iterations <==

                           Total Energy        Delta E     RMS |[F,P]|

   @DF-RHF iter SAD:  -187.99853969639480   -1.87999e+02   0.00000e+00 
   @DF-RHF iter   1:  -188.73571577374892   -7.37176e-01   1.51600e-03 DIIS
   @DF-RHF iter   2:  -188.79779648868913   -6.20807e-02   1.07436e-03 DIIS
   @DF-RHF iter   3:  -188.84107056768198   -4.32741e-02   1.23334e-04 DIIS
   @DF-RHF iter   4:  -188.84215117699588   -1.08061e-03   6.61284e-05 DIIS
   @DF-RHF iter   5:  -188.84242161469083   -2.70438e-04   1.61477e-05 DIIS
   @DF-RHF iter   6:  -188.84246370321932   -4.20885e-05   7.07425e-06 DIIS
   @DF-RHF iter   7:  -188.84247327071870   -9.56750e-06   2.48475e-06 DIIS
   @DF-RHF iter   8:  -188.84247429552991   -1.02481e-06   7.39734e-07 DIIS
   @DF-RHF iter   9:  -188.84247438599539   -9.04655e-08   2.12787e-07 DIIS
   @DF-RHF iter  10:  -188.84247439335391   -7.35852e-09   4.88487e-08 DIIS
   @DF-RHF iter  11:  -188.84247439370066   -3.46745e-10   8.57194e-09 DIIS
  Energy and wave function converged.


  ==> Post-Iterations <==

    Orbital Energies [Eh]
    ---------------------

    Doubly Occupied:                                                      

       1A    -20.632740     2A    -20.567135     3A    -11.398394  
       4A     -1.477032     5A     -1.375423     6A     -0.898739  
       7A     -0.726628     8A     -0.713141     9A     -0.639235  
      10A     -0.603247    11A     -0.496031    12A     -0.474244  

    Virtual:                                                              

      13A      0.029592    14A      0.049998    15A      0.056565  
      16A      0.060431    17A      0.077757    18A      0.081271  
      19A      0.086741    20A      0.089310    21A      0.099229  
      22A      0.111253    23A      0.116022    24A      0.126697  
      25A      0.128861    26A      0.142836    27A      0.152911  
      28A      0.166603    29A      0.170003    30A      0.187519  
      31A      0.196957    32A      0.217697    33A      0.225763  
      34A      0.234752    35A      0.252389    36A      0.255577  
      37A      0.259738    38A      0.267043    39A      0.273173  
      40A      0.283237    41A      0.295439    42A      0.309688  
      43A      0.320091    44A      0.330141    45A      0.333789  
      46A      0.337438    47A      0.345106    48A      0.358997  
      49A      0.368231    50A      0.383283    51A      0.391761  
      52A      0.400494    53A      0.410353    54A      0.426623  
      55A      0.434074    56A      0.441444    57A      0.458183  
      58A      0.466141    59A      0.473257    60A      0.488084  
      61A      0.492120    62A      0.512033    63A      0.523012  
      64A      0.535880    65A      0.553154    66A      0.560757  
      67A      0.571170    68A      0.580501    69A      0.592775  
      70A      0.602087    71A      0.602733    72A      0.619224  
      73A      0.625491    74A      0.645795    75A      0.657929  
      76A      0.667557    77A      0.680098    78A      0.682299  
      79A      0.717850    80A      0.730714    81A      0.738498  
      82A      0.758743    83A      0.762599    84A      0.793136  
      85A      0.811611    86A      0.817055    87A      0.823667  
      88A      0.870037    89A      0.885235    90A      0.903073  
      91A      0.926844    92A      0.951014    93A      1.005744  
      94A      1.025476    95A      1.042121    96A      1.050105  
      97A      1.061942    98A      1.075319    99A      1.097582  
     100A      1.112761   101A      1.128809   102A      1.130804  
     103A      1.155967   104A      1.161325   105A      1.176981  
     106A      1.201425   107A      1.202957   108A      1.234006  
     109A      1.239423   110A      1.249873   111A      1.252752  
     112A      1.270139   113A      1.282499   114A      1.288596  
     115A      1.295827   116A      1.318905   117A      1.333872  
     118A      1.340153   119A      1.357381   120A      1.369947  
     121A      1.380515   122A      1.393738   123A      1.403568  
     124A      1.421538   125A      1.435429   126A      1.445412  
     127A      1.465178   128A      1.468216   129A      1.472954  
     130A      1.486595   131A      1.501711   132A      1.506782  
     133A      1.541502   134A      1.564786   135A      1.571119  
     136A      1.602919   137A      1.605967   138A      1.627381  
     139A      1.640780   140A      1.660023   141A      1.673360  
     142A      1.698779   143A      1.737274   144A      1.751609  
     145A      1.811064   146A      1.843804   147A      1.856889  
     148A      1.864987   149A      1.970107   150A      1.998209  
     151A      2.011856   152A      2.051786   153A      2.071680  
     154A      2.093032   155A      2.149383   156A      2.181863  
     157A      2.193657   158A      2.216022   159A      2.224376  
     160A      2.278589   161A      2.307327   162A      2.327311  
     163A      2.354405   164A      2.394968   165A      2.403473  
     166A      2.429961   167A      2.447194   168A      2.491555  
     169A      2.521354   170A      2.549141   171A      2.562077  
     172A      2.615528   173A      2.668738   174A      2.693504  
     175A      2.756893   176A      2.876444   177A      2.908967  
     178A      3.106838   179A      3.108027   180A      3.255040  
     181A      3.302815   182A      3.338319   183A      3.412088  
     184A      3.433208   185A      3.457608   186A      3.466357  
     187A      3.486695   188A      3.520565   189A      3.529441  
     190A      3.544873   191A      3.569268   192A      3.580081  
     193A      3.590526   194A      3.618761   195A      3.626704  
     196A      3.650926   197A      3.687636   198A      3.694322  
     199A      3.707549   200A      3.717953   201A      3.732376  
     202A      3.775925   203A      3.786347   204A      3.821911  
     205A      3.856458   206A      3.858647   207A      3.874687  
     208A      3.886994   209A      3.899612   210A      3.925445  
     211A      3.949526   212A      3.973664   213A      3.978021  
     214A      4.027069   215A      4.039444   216A      4.060904  
     217A      4.072654   218A      4.091421   219A      4.100874  
     220A      4.172567   221A      4.194508   222A      4.204020  
     223A      4.216822   224A      4.229813   225A      4.242735  
     226A      4.268106   227A      4.286647   228A      4.293176  
     229A      4.321297   230A      4.358019   231A      4.381136  
     232A      4.401247   233A      4.434003   234A      4.450581  
     235A      4.498140   236A      4.508287   237A      4.517855  
     238A      4.544802   239A      4.562253   240A      4.582742  
     241A      4.600147   242A      4.609877   243A      4.617824  
     244A      4.633053   245A      4.659547   246A      4.673725  
     247A      4.706887   248A      4.726776   249A      4.746620  
     250A      4.757681   251A      4.766282   252A      4.791257  
     253A      4.809442   254A      4.815590   255A      4.838963  
     256A      4.862708   257A      4.864945   258A      4.897288  
     259A      4.907333   260A      4.915003   261A      4.953361  
     262A      4.968555   263A      4.982397   264A      5.010970  
     265A      5.031917   266A      5.040916   267A      5.060485  
     268A      5.082188   269A      5.101154   270A      5.136427  
     271A      5.175983   272A      5.210466   273A      5.228824  
     274A      5.238459   275A      5.318281   276A      5.344910  
     277A      5.388940   278A      5.473675   279A      5.521915  
     280A      5.543072   281A      5.578066   282A      5.612072  
     283A      5.638725   284A      5.654772   285A      5.673943  
     286A      5.799351   287A      5.808852   288A      5.825184  
     289A      5.862936   290A      5.896014   291A      5.909433  
     292A      6.000962   293A      6.026083   294A      6.041099  
     295A      6.124894   296A      6.139803   297A      6.188006  
     298A      6.229778   299A      6.241132   300A      6.270965  
     301A      6.329965   302A      6.369771   303A      6.389397  
     304A      6.499339   305A      6.610633   306A      6.711872  
     307A      6.725729   308A      6.741178   309A      6.822720  
     310A      6.846636   311A      6.939771   312A      6.957936  
     313A      7.069028   314A      7.123032   315A      7.162813  
     316A      7.216645   317A      7.225829   318A      7.313931  
     319A      7.332912   320A      7.375699   321A      7.405201  
     322A      7.412251   323A      7.469496   324A      7.574119  
     325A      7.595869   326A      7.600686   327A      7.641535  
     328A      7.683898   329A      7.776689   330A      7.825028  
     331A      7.907178   332A      7.938552   333A      7.959070  
     334A      8.101714   335A      8.142816   336A      8.284996  
     337A      8.726197   338A      9.405390   339A      9.877196  
     340A     10.184758   341A     12.560351   342A     13.682996  
     343A     14.623865   344A     41.310344   345A     45.826976  
     346A     47.128502  

    Final Occupation by Irrep:
              A 
    DOCC [    12 ]

  @DF-RHF Final Energy:  -188.84247439370066

   => Energetics <=

    Nuclear Repulsion Energy =             70.0131950410304000
    One-Electron Energy =                -397.7073592072462134
    Two-Electron Energy =                 138.8516897725151864
    Total Energy =                       -188.8424743937006554

Computation Completed


Properties will be evaluated at   0.000000,   0.000000,   0.000000 [a0]

Properties computed using the SCF density matrix

  Nuclear Dipole Moment: [e a0]
     X:    73.9148      Y:     2.3608      Z:    -1.1592

  Electronic Dipole Moment: [e a0]
     X:   -73.8806      Y:    -1.6723      Z:     0.9381

  Dipole Moment: [e a0]
     X:     0.0342      Y:     0.6885      Z:    -0.2211     Total:     0.7239

  Dipole Moment: [D]
     X:     0.0870      Y:     1.7500      Z:    -0.5620     Total:     1.8401


*** tstop() called on r282 at Sat Sep 11 00:18:16 2021
Module time:
	user time   =       8.79 seconds =       0.15 minutes
	system time =       0.20 seconds =       0.00 minutes
	total time  =          9 seconds =       0.15 minutes
Total time:
	user time   =      27.12 seconds =       0.45 minutes
	system time =       0.74 seconds =       0.01 minutes
	total time  =         28 seconds =       0.47 minutes

  //>>>>>>>>>>>>>>>>>>>>>>>>>>>>>>>>>>>//
  //            Monomer B HF           //
  //<<<<<<<<<<<<<<<<<<<<<<<<<<<<<<<<<<<//


*** tstart() called on r282
*** at Sat Sep 11 00:18:16 2021

   => Loading Basis Set <=

    Name: JUN-CC-PVTZ
    Role: ORBITAL
    Keyword: BASIS
    atoms 1, 6-8    entry C          line   217 file /home/r08543048/miniconda3/share/psi4/basis/jun-cc-pvtz.gbs 
    atoms 2-3       entry O          line   305 file /home/r08543048/miniconda3/share/psi4/basis/jun-cc-pvtz.gbs 
    atoms 4-5, 9-14 entry H          line    36 file /home/r08543048/miniconda3/share/psi4/basis/jun-cc-pvtz.gbs 


         ---------------------------------------------------------
                                   SCF
               by Justin Turney, Rob Parrish, Andy Simmonett
                          and Daniel G. A. Smith
                              RHF Reference
                        1 Threads,  20980 MiB Core
         ---------------------------------------------------------

  ==> Geometry <==

    Molecular point group: c1
    Full point group: C1

    Geometry (in Angstrom), charge = 0, multiplicity = 1:

       Center              X                  Y                   Z               Mass       
    ------------   -----------------  -----------------  -----------------  -----------------
      Gh(C)           2.040190934891    -0.015869936754    -0.060246322167    12.000000000000
      Gh(O)           1.340386934891     1.094642063246    -0.323214322167    15.994914619570
      Gh(O)           1.581443934891    -1.060204936754     0.340220677833    15.994914619570
      Gh(H)           3.101013934891     0.156381063246    -0.262026322167     1.007825032230
      Gh(H)           0.397210934891     0.912614063246    -0.125960322167     1.007825032230
         C           -1.871211065109     1.236946063246     0.086084677833    12.000000000000
         C           -1.682614065109    -0.032080936754     0.469827677833    12.000000000000
         C           -1.772446065109    -1.217053936754    -0.434218322167    12.000000000000
         H           -1.801661065109     2.053946063246     0.791143677833     1.007825032230
         H           -2.116621065109     1.478466063246    -0.940815322167     1.007825032230
         H           -1.441644065109    -0.230032936754     1.509384677833     1.007825032230
         H           -2.544825065109    -1.904032936754    -0.085991322167     1.007825032230
         H           -2.010377065109    -0.917484936754    -1.454056322167     1.007825032230
         H           -0.827878065109    -1.762307936754    -0.433229322167     1.007825032230

  Running in c1 symmetry.

  Rotational constants: A =      0.16357  B =      0.06060  C =      0.04792 [cm^-1]
  Rotational constants: A =   4903.78402  B =   1816.73445  C =   1436.72712 [MHz]
  Nuclear repulsion =   70.831331384363409

  Charge       = 0
  Multiplicity = 1
  Electrons    = 24
  Nalpha       = 12
  Nbeta        = 12

  ==> Algorithm <==

  SCF Algorithm Type is DF.
  DIIS enabled.
  MOM disabled.
  Fractional occupation disabled.
  Guess Type is SAD.
  Energy threshold   = 1.00e-08
  Density threshold  = 1.00e-08
  Integral threshold = 0.00e+00

  ==> Primary Basis <==

  Basis Set: JUN-CC-PVTZ
    Blend: JUN-CC-PVTZ
    Number of shells: 126
    Number of basis function: 346
    Number of Cartesian functions: 390
    Spherical Harmonics?: true
    Max angular momentum: 3

   => Loading Basis Set <=

    Name: (JUN-CC-PVTZ AUX)
    Role: JKFIT
    Keyword: DF_BASIS_SCF
    atoms 1, 6-8    entry C          line   152 file /home/r08543048/miniconda3/share/psi4/basis/jun-cc-pvtz-jkfit.gbs 
    atoms 2-3       entry O          line   272 file /home/r08543048/miniconda3/share/psi4/basis/jun-cc-pvtz-jkfit.gbs 
    atoms 4-5, 9-14 entry H          line    70 file /home/r08543048/miniconda3/share/psi4/basis/jun-cc-pvtz-jkfit.gbs 

  ==> Pre-Iterations <==

   -------------------------------------------------------
    Irrep   Nso     Nmo     Nalpha   Nbeta   Ndocc  Nsocc
   -------------------------------------------------------
     A        346     346       0       0       0       0
   -------------------------------------------------------
    Total     346     346      12      12      12       0
   -------------------------------------------------------

  ==> Integral Setup <==

  ==> DiskDFJK: Density-Fitted J/K Matrices <==

    J tasked:                  Yes
    K tasked:                  Yes
    wK tasked:                  No
    OpenMP threads:              1
    Integrals threads:           1
    Memory [MiB]:            15735
    Algorithm:                Core
    Integral Cache:           LOAD
    Schwarz Cutoff:          1E-12
    Fitting Condition:       1E-10

   => Auxiliary Basis Set <=

  Basis Set: (JUN-CC-PVTZ AUX)
    Blend: JUN-CC-PVTZ-JKFIT
    Number of shells: 254
    Number of basis function: 810
    Number of Cartesian functions: 976
    Spherical Harmonics?: true
    Max angular momentum: 4

  Minimum eigenvalue in the overlap matrix is 3.8648906512E-05.
  Using Symmetric Orthogonalization.

  SCF Guess: Superposition of Atomic Densities via on-the-fly atomic UHF.

  ==> Iterations <==

                           Total Energy        Delta E     RMS |[F,P]|

   @DF-RHF iter SAD:  -116.33052921142595   -1.16331e+02   0.00000e+00 
   @DF-RHF iter   1:  -116.98794755026957   -6.57418e-01   1.32252e-03 DIIS
   @DF-RHF iter   2:  -117.09540582322447   -1.07458e-01   5.67055e-04 DIIS
   @DF-RHF iter   3:  -117.11538108605464   -1.99753e-02   1.02329e-04 DIIS
   @DF-RHF iter   4:  -117.11667669655469   -1.29561e-03   3.10363e-05 DIIS
   @DF-RHF iter   5:  -117.11675155964487   -7.48631e-05   8.28630e-06 DIIS
   @DF-RHF iter   6:  -117.11675779648951   -6.23684e-06   1.49574e-06 DIIS
   @DF-RHF iter   7:  -117.11675810451872   -3.08029e-07   5.47040e-07 DIIS
   @DF-RHF iter   8:  -117.11675814487134   -4.03526e-08   1.88477e-07 DIIS
   @DF-RHF iter   9:  -117.11675815063396   -5.76262e-09   6.87315e-08 DIIS
   @DF-RHF iter  10:  -117.11675815157270   -9.38741e-10   1.58990e-08 DIIS
   @DF-RHF iter  11:  -117.11675815161695   -4.42526e-11   2.81350e-09 DIIS
  Energy and wave function converged.


  ==> Post-Iterations <==

    Orbital Energies [Eh]
    ---------------------

    Doubly Occupied:                                                      

       1A    -11.234750     2A    -11.220831     3A    -11.217868  
       4A     -1.064490     5A     -0.932991     6A     -0.757866  
       7A     -0.639340     8A     -0.582866     9A     -0.569761  
      10A     -0.523300    11A     -0.493104    12A     -0.356990  

    Virtual:                                                              

      13A      0.042976    14A      0.054527    15A      0.057523  
      16A      0.062028    17A      0.078703    18A      0.084547  
      19A      0.087615    20A      0.095634    21A      0.101984  
      22A      0.112525    23A      0.118238    24A      0.130987  
      25A      0.139201    26A      0.166579    27A      0.170021  
      28A      0.176540    29A      0.183664    30A      0.188302  
      31A      0.191405    32A      0.201143    33A      0.214538  
      34A      0.223494    35A      0.233563    36A      0.241662  
      37A      0.250846    38A      0.274047    39A      0.288557  
      40A      0.298157    41A      0.307674    42A      0.322381  
      43A      0.329664    44A      0.340221    45A      0.343722  
      46A      0.356004    47A      0.361617    48A      0.369339  
      49A      0.382000    50A      0.385177    51A      0.393380  
      52A      0.396506    53A      0.408549    54A      0.422701  
      55A      0.424812    56A      0.440623    57A      0.444560  
      58A      0.456013    59A      0.473340    60A      0.474523  
      61A      0.483609    62A      0.499639    63A      0.512488  
      64A      0.522571    65A      0.529704    66A      0.543058  
      67A      0.545004    68A      0.554744    69A      0.584772  
      70A      0.598157    71A      0.619527    72A      0.683375  
      73A      0.695080    74A      0.710751    75A      0.718684  
      76A      0.729262    77A      0.740957    78A      0.748169  
      79A      0.754609    80A      0.769897    81A      0.775525  
      82A      0.790364    83A      0.796017    84A      0.811174  
      85A      0.833814    86A      0.845540    87A      0.851750  
      88A      0.855257    89A      0.867607    90A      0.892433  
      91A      0.901006    92A      0.913705    93A      0.926344  
      94A      0.948181    95A      0.961891    96A      0.975781  
      97A      0.986970    98A      0.998598    99A      1.000962  
     100A      1.008336   101A      1.034236   102A      1.041416  
     103A      1.054832   104A      1.071614   105A      1.075311  
     106A      1.079800   107A      1.103139   108A      1.106737  
     109A      1.129808   110A      1.133584   111A      1.163658  
     112A      1.180703   113A      1.210799   114A      1.231281  
     115A      1.253265   116A      1.271818   117A      1.277435  
     118A      1.311100   119A      1.335289   120A      1.372572  
     121A      1.383574   122A      1.395725   123A      1.403432  
     124A      1.419917   125A      1.433236   126A      1.445201  
     127A      1.467689   128A      1.481669   129A      1.517906  
     130A      1.550104   131A      1.558992   132A      1.571164  
     133A      1.581783   134A      1.602502   135A      1.612676  
     136A      1.628130   137A      1.645091   138A      1.652842  
     139A      1.687239   140A      1.692052   141A      1.752422  
     142A      1.761323   143A      1.765246   144A      1.806733  
     145A      1.825034   146A      1.861427   147A      1.874871  
     148A      1.894278   149A      1.905509   150A      1.934298  
     151A      1.985173   152A      2.045221   153A      2.045828  
     154A      2.096352   155A      2.165681   156A      2.209648  
     157A      2.314738   158A      2.480582   159A      2.528844  
     160A      2.603341   161A      2.639884   162A      2.661834  
     163A      2.675341   164A      2.736906   165A      2.758436  
     166A      2.762241   167A      2.773885   168A      2.791810  
     169A      2.802223   170A      2.823263   171A      2.855965  
     172A      2.870131   173A      2.895226   174A      2.897111  
     175A      2.913262   176A      2.944126   177A      2.976379  
     178A      2.983632   179A      3.008666   180A      3.022826  
     181A      3.049074   182A      3.071123   183A      3.092345  
     184A      3.102582   185A      3.123500   186A      3.144714  
     187A      3.179908   188A      3.191409   189A      3.213751  
     190A      3.231131   191A      3.262580   192A      3.282207  
     193A      3.302667   194A      3.307317   195A      3.332401  
     196A      3.352622   197A      3.370961   198A      3.382730  
     199A      3.398349   200A      3.437779   201A      3.444269  
     202A      3.474403   203A      3.480948   204A      3.506093  
     205A      3.516911   206A      3.530001   207A      3.542393  
     208A      3.604341   209A      3.628409   210A      3.660599  
     211A      3.672484   212A      3.683414   213A      3.706320  
     214A      3.709396   215A      3.749374   216A      3.766257  
     217A      3.790796   218A      3.793026   219A      3.811620  
     220A      3.852438   221A      3.861377   222A      3.873529  
     223A      3.924185   224A      3.977726   225A      3.998461  
     226A      4.041457   227A      4.053311   228A      4.063834  
     229A      4.093795   230A      4.097815   231A      4.151564  
     232A      4.186861   233A      4.202964   234A      4.210597  
     235A      4.274221   236A      4.299221   237A      4.316024  
     238A      4.324577   239A      4.344044   240A      4.365410  
     241A      4.373426   242A      4.392119   243A      4.400987  
     244A      4.415633   245A      4.422320   246A      4.453663  
     247A      4.461188   248A      4.489450   249A      4.504035  
     250A      4.518695   251A      4.567164   252A      4.573013  
     253A      4.604060   254A      4.632465   255A      4.641867  
     256A      4.696522   257A      4.708407   258A      4.735944  
     259A      4.756181   260A      4.782985   261A      4.793471  
     262A      4.801977   263A      4.842045   264A      4.872896  
     265A      4.913464   266A      4.926352   267A      4.954442  
     268A      5.023473   269A      5.029115   270A      5.044376  
     271A      5.056261   272A      5.094094   273A      5.121776  
     274A      5.194625   275A      5.213538   276A      5.225788  
     277A      5.273448   278A      5.313892   279A      5.327846  
     280A      5.353955   281A      5.394609   282A      5.428964  
     283A      5.467779   284A      5.500195   285A      5.578241  
     286A      5.626901   287A      5.641501   288A      5.681479  
     289A      5.707391   290A      5.753391   291A      5.762384  
     292A      5.778868   293A      5.864508   294A      5.965322  
     295A      5.971699   296A      6.096645   297A      6.151176  
     298A      6.154282   299A      6.282249   300A      6.379383  
     301A      6.437479   302A      6.446390   303A      6.462878  
     304A      6.491217   305A      6.496069   306A      6.531636  
     307A      6.695162   308A      6.742311   309A      6.809926  
     310A      7.025575   311A      7.146100   312A      7.180497  
     313A      7.491708   314A      7.525809   315A      7.686756  
     316A      7.823323   317A      7.977177   318A      8.009642  
     319A      8.439003   320A      8.620674   321A      8.854519  
     322A      9.290442   323A      9.479644   324A      9.665623  
     325A      9.782508   326A      9.821117   327A      9.842024  
     328A      9.890470   329A      9.925642   330A     10.018526  
     331A     10.266722   332A     10.463711   333A     11.000022  
     334A     11.362026   335A     11.513156   336A     11.577720  
     337A     11.907041   338A     12.434128   339A     13.022574  
     340A     13.584781   341A     13.886929   342A     14.609386  
     343A     15.316607   344A     44.718996   345A     60.259016  
     346A     61.111225  

    Final Occupation by Irrep:
              A 
    DOCC [    12 ]

  @DF-RHF Final Energy:  -117.11675815161695

   => Energetics <=

    Nuclear Repulsion Energy =             70.8313313843634091
    One-Electron Energy =                -296.7078639331038517
    Two-Electron Energy =                 108.7597743971234934
    Total Energy =                       -117.1167581516169491

Computation Completed


Properties will be evaluated at   0.000000,   0.000000,   0.000000 [a0]

Properties computed using the SCF density matrix

  Nuclear Dipole Moment: [e a0]
     X:   -80.6925      Y:    -2.5598      Z:     0.2203

  Electronic Dipole Moment: [e a0]
     X:    80.7000      Y:     2.3881      Z:    -0.2292

  Dipole Moment: [e a0]
     X:     0.0075      Y:    -0.1717      Z:    -0.0089     Total:     0.1721

  Dipole Moment: [D]
     X:     0.0191      Y:    -0.4364      Z:    -0.0226     Total:     0.4374


*** tstop() called on r282 at Sat Sep 11 00:18:24 2021
Module time:
	user time   =       7.97 seconds =       0.13 minutes
	system time =       0.20 seconds =       0.00 minutes
	total time  =          8 seconds =       0.13 minutes
Total time:
	user time   =      35.09 seconds =       0.58 minutes
	system time =       0.94 seconds =       0.02 minutes
	total time  =         36 seconds =       0.60 minutes
  Constructing Basis Sets for SAPT...

   => Loading Basis Set <=

    Name: (JUN-CC-PVTZ AUX)
    Role: RIFIT
    Keyword: DF_BASIS_SAPT
    atoms 1, 6-8    entry C          line   132 file /home/r08543048/miniconda3/share/psi4/basis/jun-cc-pvtz-ri.gbs 
    atoms 2-3       entry O          line   244 file /home/r08543048/miniconda3/share/psi4/basis/jun-cc-pvtz-ri.gbs 
    atoms 4-5, 9-14 entry H          line    30 file /home/r08543048/miniconda3/share/psi4/basis/jun-cc-pvtz-ri.gbs 


  //>>>>>>>>>>>>>>>>>>>>>>>>>>>>>>>>>>>//
  //               SAPT0               //
  //<<<<<<<<<<<<<<<<<<<<<<<<<<<<<<<<<<<//


*** tstart() called on r282
*** at Sat Sep 11 00:18:24 2021

        SAPT0  
    Ed Hohenstein
     6 June 2009

      Orbital Information
  --------------------------
    NSO        =       346
    NMO        =       346
    NRI        =       822
    NOCC A     =        12
    NOCC B     =        12
    FOCC A     =         0
    FOCC B     =         0
    NVIR A     =       334
    NVIR B     =       334

    Elst10,r            =    -0.012924592262 [Eh]
    Exch10              =     0.015313075745 [Eh]
    Exch10 (S^2)        =     0.015178686879 [Eh]

    Iter     Energy [mEh]          dE [mEh]         Residual      Time [s]
       1      -0.90685850       0.906858499       4.522438519             0
       2      -1.08247480       0.175616305       1.982788671             0
       3      -1.10280659       0.020331788       0.621391930             1
       4      -1.09843015      -0.004376437       0.280472129             1
       5      -1.09665862      -0.001771530       0.087671260             1
       6      -1.09718790       0.000529271       0.041755373             1
       7      -1.09746055       0.000272657       0.008567189             2
       8      -1.09736771      -0.000092847       0.001780642             2
       9      -1.09737524       0.000007535       0.000527245             2
      10      -1.09737629       0.000001047       0.000119093             3
      11      -1.09737558      -0.000000704       0.000039584             3
      12      -1.09737574       0.000000154       0.000017256             3
      13      -1.09737575       0.000000011       0.000005536             4
      14      -1.09737573      -0.000000018       0.000001351             4
      15      -1.09737573       0.000000001       0.000000380             4

    CHF Iterations converged


    Iter     Energy [mEh]          dE [mEh]         Residual      Time [s]
       1      -6.75731092       6.757310923      15.261172985             0
       2      -8.47513468       1.717823754       6.491540296             1
       3      -8.77453643       0.299401757       1.798678211             1
       4      -8.74953587      -0.025000569       0.591999675             1
       5      -8.72760542      -0.021930450       0.147608258             2
       6      -8.72967519       0.002069770       0.064964646             2
       7      -8.73099661       0.001321424       0.018778425             2
       8      -8.73060580      -0.000390813       0.004213030             3
       9      -8.73058385      -0.000021949       0.000956146             3
      10      -8.73059656       0.000012708       0.000300932             3
      11      -8.73059878       0.000002219       0.000071322             3
      12      -8.73059741      -0.000001361       0.000015033             4
      13      -8.73059751       0.000000100       0.000003598             4
      14      -8.73059755       0.000000037       0.000000870             4

    CHF Iterations converged

    Ind20,r (A<-B)      =    -0.001097375732 [Eh]
    Ind20,r (B<-A)      =    -0.008730597552 [Eh]
    Ind20,r             =    -0.009827973283 [Eh]
    Exch-Ind20,r (A<-B) =     0.000866392516 [Eh]
    Exch-Ind20,r (B<-A) =     0.005585832115 [Eh]
    Exch-Ind20,r        =     0.006452224631 [Eh]
    Disp20              =    -0.008513756493 [Eh]
    Disp20 (SS)         =    -0.004256878246 [Eh]
    Disp20 (OS)         =    -0.004256878246 [Eh]
    Exch-Disp20         =     0.001327017921 [Eh]
    Exch-Disp20 (SS)    =     0.000865060163 [Eh]
    Exch-Disp20 (OS)    =     0.000461957757 [Eh]

    SAPT Results 
  --------------------------------------------------------------------------------------------------------
    Electrostatics                -12.92459226 [mEh]      -8.11030409 [kcal/mol]     -33.93351231 [kJ/mol]
      Elst10,r                    -12.92459226 [mEh]      -8.11030409 [kcal/mol]     -33.93351231 [kJ/mol]

    Exchange                       15.31307574 [mEh]       9.60910010 [kcal/mol]      40.20447483 [kJ/mol]
      Exch10                       15.31307574 [mEh]       9.60910010 [kcal/mol]      40.20447483 [kJ/mol]
      Exch10(S^2)                  15.17868688 [mEh]       9.52476982 [kcal/mol]      39.85163691 [kJ/mol]

    Induction                      -5.76531079 [mEh]      -3.61778714 [kcal/mol]     -15.13682139 [kJ/mol]
      Ind20,r                      -9.82797328 [mEh]      -6.16714634 [kcal/mol]     -25.80334030 [kJ/mol]
      Exch-Ind20,r                  6.45222463 [mEh]       4.04883208 [kcal/mol]      16.94031344 [kJ/mol]
      delta HF,r (2)               -2.38956214 [mEh]      -1.49947288 [kcal/mol]      -6.27379453 [kJ/mol]

    Dispersion                     -7.18673857 [mEh]      -4.50974654 [kcal/mol]     -18.86877952 [kJ/mol]
      Disp20                       -8.51375649 [mEh]      -5.34246286 [kcal/mol]     -22.35286459 [kJ/mol]
      Exch-Disp20                   1.32701792 [mEh]       0.83271632 [kcal/mol]       3.48408507 [kJ/mol]
      Disp20 (SS)                  -4.25687825 [mEh]      -2.67123143 [kcal/mol]     -11.17643230 [kJ/mol]
      Disp20 (OS)                  -4.25687825 [mEh]      -2.67123143 [kcal/mol]     -11.17643230 [kJ/mol]
      Exch-Disp20 (SS)              0.86506016 [mEh]       0.54283345 [kcal/mol]       2.27121515 [kJ/mol]
      Exch-Disp20 (OS)              0.46195776 [mEh]       0.28988287 [kcal/mol]       1.21286992 [kJ/mol]

  Total HF                         -3.37682731 [mEh]      -2.11899113 [kcal/mol]      -8.86585888 [kJ/mol]
  Total SAPT0                     -10.56356588 [mEh]      -6.62873767 [kcal/mol]     -27.73463840 [kJ/mol]

  Special recipe for scaled SAPT0 (see Manual):
    Electrostatics sSAPT0         -12.92459226 [mEh]      -8.11030409 [kcal/mol]     -33.93351231 [kJ/mol]
    Exchange sSAPT0                15.31307574 [mEh]       9.60910010 [kcal/mol]      40.20447483 [kJ/mol]
    Induction sSAPT0               -5.59240908 [mEh]      -3.50928968 [kcal/mol]     -14.68286801 [kJ/mol]
    Dispersion sSAPT0              -7.15117817 [mEh]      -4.48743205 [kcal/mol]     -18.77541571 [kJ/mol]
  Total sSAPT0                    -10.35510377 [mEh]      -6.49792572 [kcal/mol]     -27.18732120 [kJ/mol]
  --------------------------------------------------------------------------------------------------------

*** tstop() called on r282 at Sat Sep 11 00:18:58 2021
Module time:
	user time   =      27.31 seconds =       0.46 minutes
	system time =       5.97 seconds =       0.10 minutes
	total time  =         34 seconds =       0.57 minutes
Total time:
	user time   =      62.49 seconds =       1.04 minutes
	system time =       6.91 seconds =       0.12 minutes
	total time  =         70 seconds =       1.17 minutes

    Psi4 stopped on: Saturday, 11 September 2021 12:18AM
    Psi4 wall time for execution: 0:01:09.52

*** Psi4 exiting successfully. Buy a developer a beer!
