
    -----------------------------------------------------------------------
          Psi4: An Open-Source Ab Initio Electronic Structure Package
                               Psi4 1.3.2 release

                         Git: Rev {HEAD} ecbda83 


    R. M. Parrish, L. A. Burns, D. G. A. Smith, A. C. Simmonett,
    A. E. DePrince III, E. G. Hohenstein, U. Bozkaya, A. Yu. Sokolov,
    R. Di Remigio, R. M. Richard, J. F. Gonthier, A. M. James,
    H. R. McAlexander, A. Kumar, M. Saitow, X. Wang, B. P. Pritchard,
    P. Verma, H. F. Schaefer III, K. Patkowski, R. A. King, E. F. Valeev,
    F. A. Evangelista, J. M. Turney, T. D. Crawford, and C. D. Sherrill,
    J. Chem. Theory Comput. 13(7) pp 3185--3197 (2017).
    (doi: 10.1021/acs.jctc.7b00174)


                         Additional Contributions by
    P. Kraus, H. Kruse, M. H. Lechner, M. C. Schieber, R. A. Shaw,
    A. Alenaizan, R. Galvelis, Z. L. Glick, S. Lehtola, and J. P. Misiewicz

    -----------------------------------------------------------------------


    Psi4 started on: Saturday, 11 September 2021 12:41AM

    Process ID: 57388
    Host:       r282
    PSIDATADIR: /home/r08543048/miniconda3/share/psi4
    Memory:     500.0 MiB
    Threads:    1
    
  ==> Input File <==

--------------------------------------------------------------------------
# Any line starting with the # character is a comment line
#! Sample  computation

memory 22 gb

molecule Dimer {
0 1
 C   3.453296    0.610396   -0.070793
 C   2.523373   -0.554852    0.216221
 C   1.078575   -0.213887   -0.027557
 O   0.665178    0.858589   -0.417900
 O   0.272558   -1.261582    0.243810
 H   3.209620    1.463227    0.559241
 H   4.487127    0.325281    0.115561
 H   3.362660    0.930584   -1.106547
 H   2.607111   -0.894074    1.250063
 H   2.760130   -1.422325   -0.402253   
 H  -0.646404   -0.980645    0.058432
  
  
  
  
  
  
    
    
 --
0 1
 C   -2.965757   -1.072060   -0.134101
 C   -2.646739    0.187088   -0.458665
 C   -2.597128    1.327407    0.504061
 H   -2.990715   -1.855684   -0.878848
 H   -3.222256   -1.337713    0.884079
 H   -2.396178    0.410626   -1.490580
 H   -3.295105    2.110463    0.204734
 H   -2.852861    1.003300    1.512115
 H   -1.598737    1.766353    0.511731
   
   
   
   
   
   




units angstrom

no_reorient
symmetry c1
}

set globals{
  basis jun-cc-pvtz
}

energy('sapt0')


--------------------------------------------------------------------------

  Memory set to  20.489 GiB by Python driver.

  //>>>>>>>>>>>>>>>>>>>>>>>>>>>>>>>>>>>//
  //              Dimer HF             //
  //<<<<<<<<<<<<<<<<<<<<<<<<<<<<<<<<<<<//


*** tstart() called on r282
*** at Sat Sep 11 00:41:55 2021

   => Loading Basis Set <=

    Name: JUN-CC-PVTZ
    Role: ORBITAL
    Keyword: BASIS
    atoms 1-3, 12-14  entry C          line   217 file /home/r08543048/miniconda3/share/psi4/basis/jun-cc-pvtz.gbs 
    atoms 4-5         entry O          line   305 file /home/r08543048/miniconda3/share/psi4/basis/jun-cc-pvtz.gbs 
    atoms 6-11, 15-20 entry H          line    36 file /home/r08543048/miniconda3/share/psi4/basis/jun-cc-pvtz.gbs 


         ---------------------------------------------------------
                                   SCF
               by Justin Turney, Rob Parrish, Andy Simmonett
                          and Daniel G. A. Smith
                              RHF Reference
                        1 Threads,  20980 MiB Core
         ---------------------------------------------------------

  ==> Geometry <==

    Molecular point group: c1
    Full point group: C1

    Geometry (in Angstrom), charge = 0, multiplicity = 1:

       Center              X                  Y                   Z               Mass       
    ------------   -----------------  -----------------  -----------------  -----------------
         C            3.448417322287     0.623364676428    -0.060392697312    12.000000000000
         C            2.518494322287    -0.541883323572     0.226621302688    12.000000000000
         C            1.073696322287    -0.200918323572    -0.017156697312    12.000000000000
         O            0.660299322287     0.871557676428    -0.407499697312    15.994914619570
         O            0.267679322287    -1.248613323572     0.254210302688    15.994914619570
         H            3.204741322287     1.476195676428     0.569641302688     1.007825032230
         H            4.482248322287     0.338249676428     0.125961302688     1.007825032230
         H            3.357781322287     0.943552676428    -1.096146697312     1.007825032230
         H            2.602232322287    -0.881105323572     1.260463302688     1.007825032230
         H            2.755251322287    -1.409356323572    -0.391852697312     1.007825032230
         H           -0.651282677713    -0.967676323572     0.068832302688     1.007825032230
         C           -2.970635677713    -1.059091323572    -0.123700697312    12.000000000000
         C           -2.651617677713     0.200056676428    -0.448264697312    12.000000000000
         C           -2.602006677713     1.340375676428     0.514461302688    12.000000000000
         H           -2.995593677713    -1.842715323572    -0.868447697312     1.007825032230
         H           -3.227134677713    -1.324744323572     0.894479302688     1.007825032230
         H           -2.401056677713     0.423594676428    -1.480179697312     1.007825032230
         H           -3.299983677713     2.123431676428     0.215134302688     1.007825032230
         H           -2.857739677713     1.016268676428     1.522515302688     1.007825032230
         H           -1.603615677713     1.779321676428     0.522131302688     1.007825032230

  Running in c1 symmetry.

  Rotational constants: A =      0.13794  B =      0.02650  C =      0.02346 [cm^-1]
  Rotational constants: A =   4135.41595  B =    794.47226  C =    703.20134 [MHz]
  Nuclear repulsion =  365.918004184100653

  Charge       = 0
  Multiplicity = 1
  Electrons    = 64
  Nalpha       = 32
  Nbeta        = 32

  ==> Algorithm <==

  SCF Algorithm Type is DF.
  DIIS enabled.
  MOM disabled.
  Fractional occupation disabled.
  Guess Type is SAD.
  Energy threshold   = 1.00e-08
  Density threshold  = 1.00e-08
  Integral threshold = 0.00e+00

  ==> Primary Basis <==

  Basis Set: JUN-CC-PVTZ
    Blend: JUN-CC-PVTZ
    Number of shells: 176
    Number of basis function: 480
    Number of Cartesian functions: 540
    Spherical Harmonics?: true
    Max angular momentum: 3

   => Loading Basis Set <=

    Name: (JUN-CC-PVTZ AUX)
    Role: JKFIT
    Keyword: DF_BASIS_SCF
    atoms 1-3, 12-14  entry C          line   152 file /home/r08543048/miniconda3/share/psi4/basis/jun-cc-pvtz-jkfit.gbs 
    atoms 4-5         entry O          line   272 file /home/r08543048/miniconda3/share/psi4/basis/jun-cc-pvtz-jkfit.gbs 
    atoms 6-11, 15-20 entry H          line    70 file /home/r08543048/miniconda3/share/psi4/basis/jun-cc-pvtz-jkfit.gbs 

  ==> Pre-Iterations <==

   -------------------------------------------------------
    Irrep   Nso     Nmo     Nalpha   Nbeta   Ndocc  Nsocc
   -------------------------------------------------------
     A        480     480       0       0       0       0
   -------------------------------------------------------
    Total     480     480      32      32      32       0
   -------------------------------------------------------

  ==> Integral Setup <==

  ==> DiskDFJK: Density-Fitted J/K Matrices <==

    J tasked:                  Yes
    K tasked:                  Yes
    wK tasked:                  No
    OpenMP threads:              1
    Integrals threads:           1
    Memory [MiB]:            15735
    Algorithm:                Core
    Integral Cache:           SAVE
    Schwarz Cutoff:          1E-12
    Fitting Condition:       1E-10

   => Auxiliary Basis Set <=

  Basis Set: (JUN-CC-PVTZ AUX)
    Blend: JUN-CC-PVTZ-JKFIT
    Number of shells: 352
    Number of basis function: 1120
    Number of Cartesian functions: 1348
    Spherical Harmonics?: true
    Max angular momentum: 4

  Minimum eigenvalue in the overlap matrix is 3.7690358745E-05.
  Using Symmetric Orthogonalization.

  SCF Guess: Superposition of Atomic Densities via on-the-fly atomic UHF.

  ==> Iterations <==

                           Total Energy        Delta E     RMS |[F,P]|

   @DF-RHF iter SAD:  -382.53531875267242   -3.82535e+02   0.00000e+00 
   @DF-RHF iter   1:  -383.75871908092608   -1.22340e+00   1.62039e-03 DIIS
   @DF-RHF iter   2:  -384.00379631660343   -2.45077e-01   8.55943e-04 DIIS
   @DF-RHF iter   3:  -384.06672396698025   -6.29277e-02   1.73672e-04 DIIS
   @DF-RHF iter   4:  -384.07088951325125   -4.16555e-03   8.10993e-05 DIIS
   @DF-RHF iter   5:  -384.07174114377034   -8.51631e-04   1.45917e-05 DIIS
   @DF-RHF iter   6:  -384.07178999039570   -4.88466e-05   7.16389e-06 DIIS
   @DF-RHF iter   7:  -384.07179971853105   -9.72814e-06   2.41292e-06 DIIS
   @DF-RHF iter   8:  -384.07180168886833   -1.97034e-06   9.44438e-07 DIIS
   @DF-RHF iter   9:  -384.07180200498681   -3.16118e-07   2.59265e-07 DIIS
   @DF-RHF iter  10:  -384.07180202642047   -2.14337e-08   7.26362e-08 DIIS
   @DF-RHF iter  11:  -384.07180202778341   -1.36293e-09   2.24330e-08 DIIS
   @DF-RHF iter  12:  -384.07180202788078   -9.73728e-11   7.44770e-09 DIIS
  Energy and wave function converged.


  ==> Post-Iterations <==

    Orbital Energies [Eh]
    ---------------------

    Doubly Occupied:                                                      

       1A    -20.598143     2A    -20.542243     3A    -11.379258  
       4A    -11.245307     5A    -11.242769     6A    -11.226831  
       7A    -11.218504     8A    -11.218469     9A     -1.452316  
      10A     -1.350437    11A     -1.073984    12A     -1.062624  
      13A     -0.938059    14A     -0.909979    15A     -0.787055  
      16A     -0.765198    17A     -0.698575    18A     -0.681452  
      19A     -0.654723    20A     -0.646733    21A     -0.591839  
      22A     -0.589559    23A     -0.585759    24A     -0.565434  
      25A     -0.530189    26A     -0.525271    27A     -0.522269  
      28A     -0.500776    29A     -0.499434    30A     -0.474533  
      31A     -0.446337    32A     -0.370452  

    Virtual:                                                              

      33A      0.050951    34A      0.052930    35A      0.057443  
      36A      0.062323    37A      0.065592    38A      0.077519  
      39A      0.081637    40A      0.091616    41A      0.097618  
      42A      0.101162    43A      0.107761    44A      0.112778  
      45A      0.113152    46A      0.120722    47A      0.129077  
      48A      0.140871    49A      0.147784    50A      0.148816  
      51A      0.165812    52A      0.174696    53A      0.177239  
      54A      0.186951    55A      0.197608    56A      0.206849  
      57A      0.211655    58A      0.213153    59A      0.220071  
      60A      0.221996    61A      0.239499    62A      0.256725  
      63A      0.261556    64A      0.275574    65A      0.282936  
      66A      0.287424    67A      0.289930    68A      0.296490  
      69A      0.298262    70A      0.303944    71A      0.313102  
      72A      0.314270    73A      0.319945    74A      0.327138  
      75A      0.334557    76A      0.336703    77A      0.341091  
      78A      0.342979    79A      0.354558    80A      0.361294  
      81A      0.362324    82A      0.373563    83A      0.376895  
      84A      0.384658    85A      0.391667    86A      0.395988  
      87A      0.403744    88A      0.415384    89A      0.420654  
      90A      0.430349    91A      0.438591    92A      0.444362  
      93A      0.453403    94A      0.464785    95A      0.469058  
      96A      0.480902    97A      0.498276    98A      0.503502  
      99A      0.512473   100A      0.518202   101A      0.522208  
     102A      0.535630   103A      0.537786   104A      0.545436  
     105A      0.552542   106A      0.554267   107A      0.556386  
     108A      0.566672   109A      0.575316   110A      0.595196  
     111A      0.601748   112A      0.629059   113A      0.630443  
     114A      0.664670   115A      0.673629   116A      0.685148  
     117A      0.697802   118A      0.706457   119A      0.714620  
     120A      0.718236   121A      0.730777   122A      0.732498  
     123A      0.739083   124A      0.741781   125A      0.747217  
     126A      0.764100   127A      0.768870   128A      0.779105  
     129A      0.785521   130A      0.803032   131A      0.804088  
     132A      0.812918   133A      0.816681   134A      0.819822  
     135A      0.843985   136A      0.851583   137A      0.858257  
     138A      0.862704   139A      0.875656   140A      0.877248  
     141A      0.888850   142A      0.900793   143A      0.912596  
     144A      0.919018   145A      0.923314   146A      0.933530  
     147A      0.942203   148A      0.957149   149A      0.965722  
     150A      0.968040   151A      0.986350   152A      0.990816  
     153A      1.006141   154A      1.023150   155A      1.026640  
     156A      1.047026   157A      1.060414   158A      1.068288  
     159A      1.092809   160A      1.093705   161A      1.107345  
     162A      1.120273   163A      1.125154   164A      1.133066  
     165A      1.147429   166A      1.158494   167A      1.167057  
     168A      1.197499   169A      1.199390   170A      1.229324  
     171A      1.236211   172A      1.265136   173A      1.282878  
     174A      1.285485   175A      1.288317   176A      1.314723  
     177A      1.325981   178A      1.344124   179A      1.351598  
     180A      1.368267   181A      1.377923   182A      1.391985  
     183A      1.399053   184A      1.406924   185A      1.420005  
     186A      1.428138   187A      1.436358   188A      1.438663  
     189A      1.441007   190A      1.453041   191A      1.463085  
     192A      1.475918   193A      1.487239   194A      1.494316  
     195A      1.499013   196A      1.517305   197A      1.529042  
     198A      1.541496   199A      1.551032   200A      1.568049  
     201A      1.577825   202A      1.586445   203A      1.608911  
     204A      1.611550   205A      1.616945   206A      1.630134  
     207A      1.647635   208A      1.663921   209A      1.667455  
     210A      1.675223   211A      1.684393   212A      1.696212  
     213A      1.754254   214A      1.758554   215A      1.773594  
     216A      1.784877   217A      1.807933   218A      1.822117  
     219A      1.826556   220A      1.849117   221A      1.865917  
     222A      1.891466   223A      1.899348   224A      1.913693  
     225A      1.920094   226A      1.945964   227A      1.962476  
     228A      1.986459   229A      2.027298   230A      2.073482  
     231A      2.117192   232A      2.204774   233A      2.230778  
     234A      2.241499   235A      2.272179   236A      2.314681  
     237A      2.383372   238A      2.448995   239A      2.468161  
     240A      2.473985   241A      2.589370   242A      2.633374  
     243A      2.649266   244A      2.709867   245A      2.737659  
     246A      2.746015   247A      2.786721   248A      2.800689  
     249A      2.806310   250A      2.821844   251A      2.839507  
     252A      2.849365   253A      2.878113   254A      2.885959  
     255A      2.893369   256A      2.904938   257A      2.922804  
     258A      2.929064   259A      2.964393   260A      2.979733  
     261A      3.005074   262A      3.027569   263A      3.036911  
     264A      3.042221   265A      3.060836   266A      3.081342  
     267A      3.091888   268A      3.109386   269A      3.117254  
     270A      3.119899   271A      3.133618   272A      3.138558  
     273A      3.174479   274A      3.182372   275A      3.190654  
     276A      3.209196   277A      3.220945   278A      3.235258  
     279A      3.246491   280A      3.270058   281A      3.277560  
     282A      3.297820   283A      3.306522   284A      3.312753  
     285A      3.325839   286A      3.346193   287A      3.354788  
     288A      3.361880   289A      3.373819   290A      3.377442  
     291A      3.383373   292A      3.402115   293A      3.422382  
     294A      3.440698   295A      3.444500   296A      3.462987  
     297A      3.467201   298A      3.483209   299A      3.485970  
     300A      3.493606   301A      3.494988   302A      3.510133  
     303A      3.519411   304A      3.524873   305A      3.538775  
     306A      3.548336   307A      3.576468   308A      3.586301  
     309A      3.609850   310A      3.615039   311A      3.624489  
     312A      3.645403   313A      3.654641   314A      3.665273  
     315A      3.673755   316A      3.693563   317A      3.705658  
     318A      3.713668   319A      3.734597   320A      3.749335  
     321A      3.762096   322A      3.771432   323A      3.794981  
     324A      3.800517   325A      3.805460   326A      3.821934  
     327A      3.836474   328A      3.855139   329A      3.863579  
     330A      3.874827   331A      3.886281   332A      3.895318  
     333A      3.914703   334A      3.928233   335A      3.961589  
     336A      3.977572   337A      3.998510   338A      4.010140  
     339A      4.043969   340A      4.053048   341A      4.068666  
     342A      4.088550   343A      4.094291   344A      4.115135  
     345A      4.143969   346A      4.193781   347A      4.202607  
     348A      4.216871   349A      4.222577   350A      4.237363  
     351A      4.247910   352A      4.255502   353A      4.281415  
     354A      4.298529   355A      4.314374   356A      4.320791  
     357A      4.322332   358A      4.351188   359A      4.352317  
     360A      4.360042   361A      4.372550   362A      4.379892  
     363A      4.389052   364A      4.407944   365A      4.427247  
     366A      4.438344   367A      4.442183   368A      4.450531  
     369A      4.455437   370A      4.473344   371A      4.482164  
     372A      4.500326   373A      4.504347   374A      4.523349  
     375A      4.564962   376A      4.582955   377A      4.599807  
     378A      4.614101   379A      4.634819   380A      4.640901  
     381A      4.646277   382A      4.685496   383A      4.690189  
     384A      4.705093   385A      4.719328   386A      4.724977  
     387A      4.746140   388A      4.772538   389A      4.799423  
     390A      4.827218   391A      4.829540   392A      4.856638  
     393A      4.885603   394A      4.908477   395A      4.921991  
     396A      4.938069   397A      4.966188   398A      5.016681  
     399A      5.031520   400A      5.072206   401A      5.110607  
     402A      5.137380   403A      5.185865   404A      5.193558  
     405A      5.210124   406A      5.223266   407A      5.259277  
     408A      5.276477   409A      5.285963   410A      5.306835  
     411A      5.318883   412A      5.324989   413A      5.327774  
     414A      5.345701   415A      5.356576   416A      5.382730  
     417A      5.456745   418A      5.461651   419A      5.490540  
     420A      5.509620   421A      5.578805   422A      5.582581  
     423A      5.617900   424A      5.634894   425A      5.647502  
     426A      5.660071   427A      5.681671   428A      5.700136  
     429A      5.702288   430A      5.739090   431A      5.740577  
     432A      5.767579   433A      5.782764   434A      5.812686  
     435A      5.828477   436A      5.860174   437A      5.887956  
     438A      5.902990   439A      5.911828   440A      5.971415  
     441A      5.980730   442A      6.035694   443A      6.065266  
     444A      6.100261   445A      6.148012   446A      6.305480  
     447A      6.366956   448A      6.446870   449A      6.471754  
     450A      6.475654   451A      6.492734   452A      6.499988  
     453A      6.523596   454A      6.559329   455A      6.692333  
     456A      6.749501   457A      6.796015   458A      6.993471  
     459A      7.008618   460A      7.093529   461A      7.211926  
     462A      7.297687   463A      7.306205   464A      7.393460  
     465A      7.404995   466A      7.408005   467A      7.470995  
     468A      7.681690   469A      7.766886   470A      7.867379  
     471A      7.994890   472A      8.162883   473A     12.147024  
     474A     12.447272   475A     13.937434   476A     14.130130  
     477A     14.534032   478A     14.639276   479A     14.732384  
     480A     15.324189  

    Final Occupation by Irrep:
              A 
    DOCC [    32 ]

  @DF-RHF Final Energy:  -384.07180202788078

   => Energetics <=

    Nuclear Repulsion Energy =            365.9180041841006528
    One-Electron Energy =               -1248.1905836586242913
    Two-Electron Energy =                 498.2007774466428032
    Total Energy =                       -384.0718020278807785

Computation Completed


Properties will be evaluated at   0.000000,   0.000000,   0.000000 [a0]

Properties computed using the SCF density matrix

  Nuclear Dipole Moment: [e a0]
     X:    -0.5900      Y:     1.5685      Z:     1.2578

  Electronic Dipole Moment: [e a0]
     X:     0.7297      Y:    -1.9324      Z:    -1.0572

  Dipole Moment: [e a0]
     X:     0.1397      Y:    -0.3639      Z:     0.2006     Total:     0.4384

  Dipole Moment: [D]
     X:     0.3551      Y:    -0.9250      Z:     0.5100     Total:     1.1144


*** tstop() called on r282 at Sat Sep 11 00:42:53 2021
Module time:
	user time   =      56.50 seconds =       0.94 minutes
	system time =       1.29 seconds =       0.02 minutes
	total time  =         58 seconds =       0.97 minutes
Total time:
	user time   =      56.50 seconds =       0.94 minutes
	system time =       1.29 seconds =       0.02 minutes
	total time  =         58 seconds =       0.97 minutes

  //>>>>>>>>>>>>>>>>>>>>>>>>>>>>>>>>>>>//
  //            Monomer A HF           //
  //<<<<<<<<<<<<<<<<<<<<<<<<<<<<<<<<<<<//


*** tstart() called on r282
*** at Sat Sep 11 00:42:53 2021

   => Loading Basis Set <=

    Name: JUN-CC-PVTZ
    Role: ORBITAL
    Keyword: BASIS
    atoms 1-3, 12-14  entry C          line   217 file /home/r08543048/miniconda3/share/psi4/basis/jun-cc-pvtz.gbs 
    atoms 4-5         entry O          line   305 file /home/r08543048/miniconda3/share/psi4/basis/jun-cc-pvtz.gbs 
    atoms 6-11, 15-20 entry H          line    36 file /home/r08543048/miniconda3/share/psi4/basis/jun-cc-pvtz.gbs 


         ---------------------------------------------------------
                                   SCF
               by Justin Turney, Rob Parrish, Andy Simmonett
                          and Daniel G. A. Smith
                              RHF Reference
                        1 Threads,  20980 MiB Core
         ---------------------------------------------------------

  ==> Geometry <==

    Molecular point group: c1
    Full point group: C1

    Geometry (in Angstrom), charge = 0, multiplicity = 1:

       Center              X                  Y                   Z               Mass       
    ------------   -----------------  -----------------  -----------------  -----------------
         C            3.448417322287     0.623364676428    -0.060392697312    12.000000000000
         C            2.518494322287    -0.541883323572     0.226621302688    12.000000000000
         C            1.073696322287    -0.200918323572    -0.017156697312    12.000000000000
         O            0.660299322287     0.871557676428    -0.407499697312    15.994914619570
         O            0.267679322287    -1.248613323572     0.254210302688    15.994914619570
         H            3.204741322287     1.476195676428     0.569641302688     1.007825032230
         H            4.482248322287     0.338249676428     0.125961302688     1.007825032230
         H            3.357781322287     0.943552676428    -1.096146697312     1.007825032230
         H            2.602232322287    -0.881105323572     1.260463302688     1.007825032230
         H            2.755251322287    -1.409356323572    -0.391852697312     1.007825032230
         H           -0.651282677713    -0.967676323572     0.068832302688     1.007825032230
      Gh(C)          -2.970635677713    -1.059091323572    -0.123700697312    12.000000000000
      Gh(C)          -2.651617677713     0.200056676428    -0.448264697312    12.000000000000
      Gh(C)          -2.602006677713     1.340375676428     0.514461302688    12.000000000000
      Gh(H)          -2.995593677713    -1.842715323572    -0.868447697312     1.007825032230
      Gh(H)          -3.227134677713    -1.324744323572     0.894479302688     1.007825032230
      Gh(H)          -2.401056677713     0.423594676428    -1.480179697312     1.007825032230
      Gh(H)          -3.299983677713     2.123431676428     0.215134302688     1.007825032230
      Gh(H)          -2.857739677713     1.016268676428     1.522515302688     1.007825032230
      Gh(H)          -1.603615677713     1.779321676428     0.522131302688     1.007825032230

  Running in c1 symmetry.

  Rotational constants: A =      0.13794  B =      0.02650  C =      0.02346 [cm^-1]
  Rotational constants: A =   4135.41595  B =    794.47226  C =    703.20134 [MHz]
  Nuclear repulsion =  178.585347641372977

  Charge       = 0
  Multiplicity = 1
  Electrons    = 40
  Nalpha       = 20
  Nbeta        = 20

  ==> Algorithm <==

  SCF Algorithm Type is DF.
  DIIS enabled.
  MOM disabled.
  Fractional occupation disabled.
  Guess Type is SAD.
  Energy threshold   = 1.00e-08
  Density threshold  = 1.00e-08
  Integral threshold = 0.00e+00

  ==> Primary Basis <==

  Basis Set: JUN-CC-PVTZ
    Blend: JUN-CC-PVTZ
    Number of shells: 176
    Number of basis function: 480
    Number of Cartesian functions: 540
    Spherical Harmonics?: true
    Max angular momentum: 3

   => Loading Basis Set <=

    Name: (JUN-CC-PVTZ AUX)
    Role: JKFIT
    Keyword: DF_BASIS_SCF
    atoms 1-3, 12-14  entry C          line   152 file /home/r08543048/miniconda3/share/psi4/basis/jun-cc-pvtz-jkfit.gbs 
    atoms 4-5         entry O          line   272 file /home/r08543048/miniconda3/share/psi4/basis/jun-cc-pvtz-jkfit.gbs 
    atoms 6-11, 15-20 entry H          line    70 file /home/r08543048/miniconda3/share/psi4/basis/jun-cc-pvtz-jkfit.gbs 

  ==> Pre-Iterations <==

   -------------------------------------------------------
    Irrep   Nso     Nmo     Nalpha   Nbeta   Ndocc  Nsocc
   -------------------------------------------------------
     A        480     480       0       0       0       0
   -------------------------------------------------------
    Total     480     480      20      20      20       0
   -------------------------------------------------------

  ==> Integral Setup <==

  ==> DiskDFJK: Density-Fitted J/K Matrices <==

    J tasked:                  Yes
    K tasked:                  Yes
    wK tasked:                  No
    OpenMP threads:              1
    Integrals threads:           1
    Memory [MiB]:            15735
    Algorithm:                Core
    Integral Cache:           LOAD
    Schwarz Cutoff:          1E-12
    Fitting Condition:       1E-10

   => Auxiliary Basis Set <=

  Basis Set: (JUN-CC-PVTZ AUX)
    Blend: JUN-CC-PVTZ-JKFIT
    Number of shells: 352
    Number of basis function: 1120
    Number of Cartesian functions: 1348
    Spherical Harmonics?: true
    Max angular momentum: 4

  Minimum eigenvalue in the overlap matrix is 3.7690358745E-05.
  Using Symmetric Orthogonalization.

  SCF Guess: Superposition of Atomic Densities via on-the-fly atomic UHF.

  ==> Iterations <==

                           Total Energy        Delta E     RMS |[F,P]|

   @DF-RHF iter SAD:  -266.05940967397510   -2.66059e+02   0.00000e+00 
   @DF-RHF iter   1:  -266.75216974105484   -6.92760e-01   1.35282e-03 DIIS
   @DF-RHF iter   2:  -266.89951113389060   -1.47341e-01   7.95109e-04 DIIS
   @DF-RHF iter   3:  -266.94889036741989   -4.93792e-02   1.40416e-04 DIIS
   @DF-RHF iter   4:  -266.95166081062217   -2.77044e-03   6.68990e-05 DIIS
   @DF-RHF iter   5:  -266.95227143450700   -6.10624e-04   1.34211e-05 DIIS
   @DF-RHF iter   6:  -266.95231606792817   -4.46334e-05   6.59521e-06 DIIS
   @DF-RHF iter   7:  -266.95232518683702   -9.11891e-06   2.37507e-06 DIIS
   @DF-RHF iter   8:  -266.95232708975681   -1.90292e-06   8.42078e-07 DIIS
   @DF-RHF iter   9:  -266.95232734550461   -2.55748e-07   1.96083e-07 DIIS
   @DF-RHF iter  10:  -266.95232735803211   -1.25275e-08   5.91181e-08 DIIS
   @DF-RHF iter  11:  -266.95232735878756   -7.55449e-10   1.47036e-08 DIIS
   @DF-RHF iter  12:  -266.95232735884133   -5.37739e-11   3.38067e-09 DIIS
  Energy and wave function converged.


  ==> Post-Iterations <==

    Orbital Energies [Eh]
    ---------------------

    Doubly Occupied:                                                      

       1A    -20.616291     2A    -20.549584     3A    -11.386595  
       4A    -11.248380     5A    -11.221891     6A     -1.463862  
       7A     -1.359266     8A     -1.068032     9A     -0.916241  
      10A     -0.796484    11A     -0.704763    12A     -0.689488  
      13A     -0.662039    14A     -0.596260    15A     -0.594089  
      16A     -0.535169    17A     -0.526544    18A     -0.505510  
      19A     -0.482788    20A     -0.452786  

    Virtual:                                                              

      21A      0.031722    22A      0.049119    23A      0.050912  
      24A      0.057702    25A      0.062582    26A      0.075181  
      27A      0.076746    28A      0.087551    29A      0.096360  
      30A      0.099637    31A      0.105724    32A      0.109904  
      33A      0.112063    34A      0.116273    35A      0.119813  
      36A      0.130375    37A      0.144457    38A      0.146477  
      39A      0.156273    40A      0.158305    41A      0.170596  
      42A      0.175210    43A      0.181105    44A      0.196692  
      45A      0.210785    46A      0.211166    47A      0.218616  
      48A      0.222512    49A      0.244977    50A      0.248838  
      51A      0.259140    52A      0.267098    53A      0.272761  
      54A      0.285125    55A      0.291131    56A      0.291546  
      57A      0.297243    58A      0.299773    59A      0.308318  
      60A      0.314082    61A      0.324863    62A      0.327580  
      63A      0.331459    64A      0.336377    65A      0.342863  
      66A      0.349821    67A      0.360967    68A      0.362183  
      69A      0.370922    70A      0.380562    71A      0.384610  
      72A      0.390526    73A      0.398173    74A      0.408554  
      75A      0.412462    76A      0.425751    77A      0.429642  
      78A      0.433838    79A      0.436148    80A      0.447618  
      81A      0.449714    82A      0.454430    83A      0.470872  
      84A      0.483612    85A      0.496054    86A      0.512374  
      87A      0.514321    88A      0.518700    89A      0.529349  
      90A      0.533600    91A      0.542643    92A      0.545936  
      93A      0.551512    94A      0.555402    95A      0.564163  
      96A      0.576266    97A      0.588139    98A      0.593877  
      99A      0.608747   100A      0.622519   101A      0.626144  
     102A      0.641627   103A      0.651310   104A      0.659259  
     105A      0.678363   106A      0.681131   107A      0.691108  
     108A      0.701924   109A      0.707792   110A      0.714772  
     111A      0.722219   112A      0.728334   113A      0.733092  
     114A      0.746082   115A      0.767540   116A      0.774822  
     117A      0.781544   118A      0.797533   119A      0.808110  
     120A      0.811417   121A      0.819333   122A      0.834106  
     123A      0.834905   124A      0.865130   125A      0.874046  
     126A      0.883729   127A      0.890271   128A      0.909131  
     129A      0.915468   130A      0.921704   131A      0.925498  
     132A      0.953811   133A      0.967517   134A      1.005075  
     135A      1.012394   136A      1.034755   137A      1.039264  
     138A      1.059471   139A      1.067034   140A      1.072307  
     141A      1.086263   142A      1.100762   143A      1.116547  
     144A      1.128703   145A      1.139843   146A      1.151227  
     147A      1.162316   148A      1.172309   149A      1.184866  
     150A      1.195963   151A      1.209727   152A      1.227057  
     153A      1.234724   154A      1.259742   155A      1.263542  
     156A      1.269914   157A      1.281902   158A      1.289824  
     159A      1.291120   160A      1.305294   161A      1.316883  
     162A      1.327189   163A      1.332318   164A      1.344976  
     165A      1.359916   166A      1.363389   167A      1.377884  
     168A      1.383003   169A      1.405269   170A      1.412100  
     171A      1.422417   172A      1.428378   173A      1.440133  
     174A      1.446658   175A      1.456345   176A      1.470671  
     177A      1.476442   178A      1.482733   179A      1.489918  
     180A      1.494280   181A      1.502117   182A      1.512170  
     183A      1.520710   184A      1.534754   185A      1.540112  
     186A      1.562144   187A      1.563969   188A      1.576690  
     189A      1.584780   190A      1.601953   191A      1.604351  
     192A      1.616033   193A      1.621708   194A      1.626685  
     195A      1.648453   196A      1.654456   197A      1.676139  
     198A      1.685944   199A      1.690527   200A      1.704931  
     201A      1.728024   202A      1.760339   203A      1.777816  
     204A      1.794116   205A      1.804150   206A      1.819220  
     207A      1.839176   208A      1.868365   209A      1.877152  
     210A      1.907549   211A      1.909879   212A      1.941948  
     213A      1.962965   214A      1.994809   215A      2.017010  
     216A      2.034904   217A      2.066018   218A      2.085798  
     219A      2.101187   220A      2.126783   221A      2.208871  
     222A      2.228709   223A      2.231723   224A      2.243897  
     225A      2.276343   226A      2.318923   227A      2.338717  
     228A      2.380064   229A      2.420759   230A      2.444826  
     231A      2.462969   232A      2.481621   233A      2.503019  
     234A      2.526365   235A      2.541067   236A      2.636703  
     237A      2.648280   238A      2.664957   239A      2.683211  
     240A      2.749618   241A      2.801349   242A      2.835290  
     243A      2.871744   244A      2.889499   245A      2.906405  
     246A      2.923934   247A      2.963833   248A      3.010645  
     249A      3.023584   250A      3.032413   251A      3.076121  
     252A      3.112547   253A      3.120798   254A      3.130393  
     255A      3.178839   256A      3.222987   257A      3.241617  
     258A      3.301310   259A      3.309728   260A      3.335498  
     261A      3.366629   262A      3.370133   263A      3.387913  
     264A      3.439215   265A      3.444154   266A      3.458387  
     267A      3.464279   268A      3.476845   269A      3.488605  
     270A      3.501155   271A      3.506670   272A      3.522026  
     273A      3.537717   274A      3.543240   275A      3.565000  
     276A      3.576824   277A      3.590972   278A      3.597508  
     279A      3.611870   280A      3.621005   281A      3.636574  
     282A      3.644515   283A      3.660067   284A      3.677027  
     285A      3.688501   286A      3.698656   287A      3.710247  
     288A      3.727152   289A      3.739554   290A      3.760749  
     291A      3.775530   292A      3.783891   293A      3.793963  
     294A      3.801081   295A      3.822497   296A      3.860109  
     297A      3.863930   298A      3.870972   299A      3.879951  
     300A      3.884215   301A      3.897937   302A      3.910661  
     303A      3.934417   304A      3.961457   305A      3.978975  
     306A      3.996799   307A      4.010962   308A      4.039691  
     309A      4.052026   310A      4.060225   311A      4.071876  
     312A      4.087062   313A      4.096465   314A      4.122212  
     315A      4.129858   316A      4.171103   317A      4.198263  
     318A      4.213268   319A      4.215004   320A      4.217876  
     321A      4.234938   322A      4.241222   323A      4.260090  
     324A      4.273090   325A      4.282833   326A      4.296191  
     327A      4.306474   328A      4.322860   329A      4.344931  
     330A      4.349695   331A      4.363228   332A      4.377208  
     333A      4.401889   334A      4.415642   335A      4.418138  
     336A      4.440809   337A      4.449044   338A      4.464041  
     339A      4.477243   340A      4.483308   341A      4.505636  
     342A      4.516189   343A      4.519016   344A      4.544823  
     345A      4.551636   346A      4.576842   347A      4.589359  
     348A      4.611385   349A      4.612553   350A      4.630868  
     351A      4.634051   352A      4.646685   353A      4.659899  
     354A      4.678997   355A      4.690430   356A      4.705107  
     357A      4.713030   358A      4.729847   359A      4.742492  
     360A      4.743909   361A      4.769821   362A      4.781789  
     363A      4.805226   364A      4.808754   365A      4.820466  
     366A      4.829030   367A      4.850007   368A      4.852489  
     369A      4.875473   370A      4.891566   371A      4.904090  
     372A      4.920744   373A      4.922838   374A      4.934731  
     375A      4.948444   376A      4.972115   377A      4.990934  
     378A      5.030883   379A      5.043310   380A      5.045531  
     381A      5.089407   382A      5.117225   383A      5.128967  
     384A      5.133569   385A      5.159770   386A      5.176968  
     387A      5.223079   388A      5.229384   389A      5.256325  
     390A      5.274662   391A      5.284238   392A      5.314990  
     393A      5.322176   394A      5.324993   395A      5.353736  
     396A      5.394614   397A      5.455337   398A      5.484484  
     399A      5.485187   400A      5.525098   401A      5.550572  
     402A      5.568943   403A      5.598183   404A      5.616629  
     405A      5.644398   406A      5.653197   407A      5.677704  
     408A      5.694103   409A      5.734591   410A      5.737503  
     411A      5.806049   412A      5.815721   413A      5.822903  
     414A      5.834309   415A      5.871744   416A      5.892177  
     417A      5.902949   418A      5.921466   419A      5.968010  
     420A      6.010387   421A      6.028349   422A      6.034836  
     423A      6.055998   424A      6.131340   425A      6.137030  
     426A      6.148576   427A      6.248621   428A      6.270524  
     429A      6.294937   430A      6.339456   431A      6.374395  
     432A      6.397990   433A      6.464434   434A      6.485997  
     435A      6.497245   436A      6.552321   437A      6.619012  
     438A      6.715583   439A      6.732644   440A      6.756648  
     441A      6.789057   442A      6.853986   443A      6.988294  
     444A      6.992886   445A      7.078316   446A      7.080838  
     447A      7.197459   448A      7.287845   449A      7.295414  
     450A      7.355716   451A      7.375892   452A      7.391248  
     453A      7.398705   454A      7.428349   455A      7.466665  
     456A      7.583715   457A      7.604552   458A      7.646748  
     459A      7.678332   460A      7.760742   461A      7.831424  
     462A      7.858836   463A      7.911987   464A      7.964275  
     465A      7.982174   466A      8.117581   467A      8.158275  
     468A      8.294310   469A      8.736834   470A      9.417548  
     471A      9.894754   472A     10.193576   473A     12.145519  
     474A     13.927172   475A     14.126552   476A     14.528339  
     477A     14.723266   478A     41.376703   479A     45.872068  
     480A     47.166927  

    Final Occupation by Irrep:
              A 
    DOCC [    20 ]

  @DF-RHF Final Energy:  -266.95232735884133

   => Energetics <=

    Nuclear Repulsion Energy =            178.5853476413729766
    One-Electron Energy =                -718.3232314079738217
    Two-Electron Energy =                 272.7855564077594863
    Total Energy =                       -266.9523273588413304

Computation Completed


Properties will be evaluated at   0.000000,   0.000000,   0.000000 [a0]

Properties computed using the SCF density matrix

  Nuclear Dipole Moment: [e a0]
     X:   123.6230      Y:    -7.9996      Z:     0.3874

  Electronic Dipole Moment: [e a0]
     X:  -123.3309      Y:     7.3470      Z:    -0.1526

  Dipole Moment: [e a0]
     X:     0.2920      Y:    -0.6526      Z:     0.2348     Total:     0.7526

  Dipole Moment: [D]
     X:     0.7423      Y:    -1.6588      Z:     0.5969     Total:     1.9128


*** tstop() called on r282 at Sat Sep 11 00:43:28 2021
Module time:
	user time   =      34.63 seconds =       0.58 minutes
	system time =       0.63 seconds =       0.01 minutes
	total time  =         35 seconds =       0.58 minutes
Total time:
	user time   =      91.13 seconds =       1.52 minutes
	system time =       1.92 seconds =       0.03 minutes
	total time  =         93 seconds =       1.55 minutes

  //>>>>>>>>>>>>>>>>>>>>>>>>>>>>>>>>>>>//
  //            Monomer B HF           //
  //<<<<<<<<<<<<<<<<<<<<<<<<<<<<<<<<<<<//


*** tstart() called on r282
*** at Sat Sep 11 00:43:28 2021

   => Loading Basis Set <=

    Name: JUN-CC-PVTZ
    Role: ORBITAL
    Keyword: BASIS
    atoms 1-3, 12-14  entry C          line   217 file /home/r08543048/miniconda3/share/psi4/basis/jun-cc-pvtz.gbs 
    atoms 4-5         entry O          line   305 file /home/r08543048/miniconda3/share/psi4/basis/jun-cc-pvtz.gbs 
    atoms 6-11, 15-20 entry H          line    36 file /home/r08543048/miniconda3/share/psi4/basis/jun-cc-pvtz.gbs 


         ---------------------------------------------------------
                                   SCF
               by Justin Turney, Rob Parrish, Andy Simmonett
                          and Daniel G. A. Smith
                              RHF Reference
                        1 Threads,  20980 MiB Core
         ---------------------------------------------------------

  ==> Geometry <==

    Molecular point group: c1
    Full point group: C1

    Geometry (in Angstrom), charge = 0, multiplicity = 1:

       Center              X                  Y                   Z               Mass       
    ------------   -----------------  -----------------  -----------------  -----------------
      Gh(C)           3.448417322287     0.623364676428    -0.060392697312    12.000000000000
      Gh(C)           2.518494322287    -0.541883323572     0.226621302688    12.000000000000
      Gh(C)           1.073696322287    -0.200918323572    -0.017156697312    12.000000000000
      Gh(O)           0.660299322287     0.871557676428    -0.407499697312    15.994914619570
      Gh(O)           0.267679322287    -1.248613323572     0.254210302688    15.994914619570
      Gh(H)           3.204741322287     1.476195676428     0.569641302688     1.007825032230
      Gh(H)           4.482248322287     0.338249676428     0.125961302688     1.007825032230
      Gh(H)           3.357781322287     0.943552676428    -1.096146697312     1.007825032230
      Gh(H)           2.602232322287    -0.881105323572     1.260463302688     1.007825032230
      Gh(H)           2.755251322287    -1.409356323572    -0.391852697312     1.007825032230
      Gh(H)          -0.651282677713    -0.967676323572     0.068832302688     1.007825032230
         C           -2.970635677713    -1.059091323572    -0.123700697312    12.000000000000
         C           -2.651617677713     0.200056676428    -0.448264697312    12.000000000000
         C           -2.602006677713     1.340375676428     0.514461302688    12.000000000000
         H           -2.995593677713    -1.842715323572    -0.868447697312     1.007825032230
         H           -3.227134677713    -1.324744323572     0.894479302688     1.007825032230
         H           -2.401056677713     0.423594676428    -1.480179697312     1.007825032230
         H           -3.299983677713     2.123431676428     0.215134302688     1.007825032230
         H           -2.857739677713     1.016268676428     1.522515302688     1.007825032230
         H           -1.603615677713     1.779321676428     0.522131302688     1.007825032230

  Running in c1 symmetry.

  Rotational constants: A =      0.13794  B =      0.02650  C =      0.02346 [cm^-1]
  Rotational constants: A =   4135.41595  B =    794.47226  C =    703.20134 [MHz]
  Nuclear repulsion =   70.837143817227840

  Charge       = 0
  Multiplicity = 1
  Electrons    = 24
  Nalpha       = 12
  Nbeta        = 12

  ==> Algorithm <==

  SCF Algorithm Type is DF.
  DIIS enabled.
  MOM disabled.
  Fractional occupation disabled.
  Guess Type is SAD.
  Energy threshold   = 1.00e-08
  Density threshold  = 1.00e-08
  Integral threshold = 0.00e+00

  ==> Primary Basis <==

  Basis Set: JUN-CC-PVTZ
    Blend: JUN-CC-PVTZ
    Number of shells: 176
    Number of basis function: 480
    Number of Cartesian functions: 540
    Spherical Harmonics?: true
    Max angular momentum: 3

   => Loading Basis Set <=

    Name: (JUN-CC-PVTZ AUX)
    Role: JKFIT
    Keyword: DF_BASIS_SCF
    atoms 1-3, 12-14  entry C          line   152 file /home/r08543048/miniconda3/share/psi4/basis/jun-cc-pvtz-jkfit.gbs 
    atoms 4-5         entry O          line   272 file /home/r08543048/miniconda3/share/psi4/basis/jun-cc-pvtz-jkfit.gbs 
    atoms 6-11, 15-20 entry H          line    70 file /home/r08543048/miniconda3/share/psi4/basis/jun-cc-pvtz-jkfit.gbs 

  ==> Pre-Iterations <==

   -------------------------------------------------------
    Irrep   Nso     Nmo     Nalpha   Nbeta   Ndocc  Nsocc
   -------------------------------------------------------
     A        480     480       0       0       0       0
   -------------------------------------------------------
    Total     480     480      12      12      12       0
   -------------------------------------------------------

  ==> Integral Setup <==

  ==> DiskDFJK: Density-Fitted J/K Matrices <==

    J tasked:                  Yes
    K tasked:                  Yes
    wK tasked:                  No
    OpenMP threads:              1
    Integrals threads:           1
    Memory [MiB]:            15735
    Algorithm:                Core
    Integral Cache:           LOAD
    Schwarz Cutoff:          1E-12
    Fitting Condition:       1E-10

   => Auxiliary Basis Set <=

  Basis Set: (JUN-CC-PVTZ AUX)
    Blend: JUN-CC-PVTZ-JKFIT
    Number of shells: 352
    Number of basis function: 1120
    Number of Cartesian functions: 1348
    Spherical Harmonics?: true
    Max angular momentum: 4

  Minimum eigenvalue in the overlap matrix is 3.7690358745E-05.
  Using Symmetric Orthogonalization.

  SCF Guess: Superposition of Atomic Densities via on-the-fly atomic UHF.

  ==> Iterations <==

                           Total Energy        Delta E     RMS |[F,P]|

   @DF-RHF iter SAD:  -116.33101007276704   -1.16331e+02   0.00000e+00 
   @DF-RHF iter   1:  -116.98792089455365   -6.56911e-01   9.53545e-04 DIIS
   @DF-RHF iter   2:  -117.09541227852181   -1.07491e-01   4.08876e-04 DIIS
   @DF-RHF iter   3:  -117.11539892753413   -1.99866e-02   7.37678e-05 DIIS
   @DF-RHF iter   4:  -117.11669465022729   -1.29572e-03   2.23614e-05 DIIS
   @DF-RHF iter   5:  -117.11676945457563   -7.48043e-05   5.97183e-06 DIIS
   @DF-RHF iter   6:  -117.11677568825264   -6.23368e-06   1.07775e-06 DIIS
   @DF-RHF iter   7:  -117.11677599595549   -3.07703e-07   3.93883e-07 DIIS
   @DF-RHF iter   8:  -117.11677603619684   -4.02413e-08   1.35653e-07 DIIS
   @DF-RHF iter   9:  -117.11677604193741   -5.74057e-09   4.94692e-08 DIIS
   @DF-RHF iter  10:  -117.11677604287314   -9.35728e-10   1.14527e-08 DIIS
   @DF-RHF iter  11:  -117.11677604291616   -4.30163e-11   2.02708e-09 DIIS
  Energy and wave function converged.


  ==> Post-Iterations <==

    Orbital Energies [Eh]
    ---------------------

    Doubly Occupied:                                                      

       1A    -11.234675     2A    -11.220825     3A    -11.217810  
       4A     -1.064546     5A     -0.932970     6A     -0.757867  
       7A     -0.639358     8A     -0.582885     9A     -0.569801  
      10A     -0.523269    11A     -0.493060    12A     -0.357040  

    Virtual:                                                              

      13A      0.032992    14A      0.049790    15A      0.052225  
      16A      0.056531    17A      0.063044    18A      0.071667  
      19A      0.075456    20A      0.089301    21A      0.093735  
      22A      0.096017    23A      0.102212    24A      0.109256  
      25A      0.111408    26A      0.113171    27A      0.126085  
      28A      0.134460    29A      0.140227    30A      0.150467  
      31A      0.155832    32A      0.162826    33A      0.169847  
      34A      0.175308    35A      0.183756    36A      0.193190  
      37A      0.198992    38A      0.201653    39A      0.206915  
      40A      0.210548    41A      0.224258    42A      0.230229  
      43A      0.247104    44A      0.256576    45A      0.261583  
      46A      0.275393    47A      0.287211    48A      0.296563  
      49A      0.299672    50A      0.302846    51A      0.309672  
      52A      0.320046    53A      0.327137    54A      0.329611  
      55A      0.340025    56A      0.348512    57A      0.352143  
      58A      0.360198    59A      0.365316    60A      0.372729  
      61A      0.374248    62A      0.382029    63A      0.390145  
      64A      0.391981    65A      0.395776    66A      0.400205  
      67A      0.416526    68A      0.421270    69A      0.431344  
      70A      0.434109    71A      0.443390    72A      0.455178  
      73A      0.462909    74A      0.470796    75A      0.476528  
      76A      0.487369    77A      0.491525    78A      0.497790  
      79A      0.502404    80A      0.508700    81A      0.520277  
      82A      0.527762    83A      0.532290    84A      0.540941  
      85A      0.543568    86A      0.550217    87A      0.556883  
      88A      0.560185    89A      0.570995    90A      0.581486  
      91A      0.606708    92A      0.627946    93A      0.640273  
      94A      0.643064    95A      0.652377    96A      0.670790  
      97A      0.688912    98A      0.695297    99A      0.698732  
     100A      0.714410   101A      0.727411   102A      0.739593  
     103A      0.749194   104A      0.752036   105A      0.773556  
     106A      0.780199   107A      0.792097   108A      0.796756  
     109A      0.804506   110A      0.815764   111A      0.828078  
     112A      0.835594   113A      0.850482   114A      0.863818  
     115A      0.873600   116A      0.879351   117A      0.887421  
     118A      0.901643   119A      0.929793   120A      0.938567  
     121A      0.944673   122A      0.951190   123A      0.969994  
     124A      0.975983   125A      0.983462   126A      1.001178  
     127A      1.018886   128A      1.025538   129A      1.041171  
     130A      1.047092   131A      1.060413   132A      1.063535  
     133A      1.071415   134A      1.080470   135A      1.087379  
     136A      1.096625   137A      1.117215   138A      1.121648  
     139A      1.129033   140A      1.148637   141A      1.154789  
     142A      1.170982   143A      1.174833   144A      1.192385  
     145A      1.198932   146A      1.209793   147A      1.226383  
     148A      1.235120   149A      1.242516   150A      1.250249  
     151A      1.267908   152A      1.275510   153A      1.283036  
     154A      1.297950   155A      1.309727   156A      1.320165  
     157A      1.328580   158A      1.336215   159A      1.347582  
     160A      1.372476   161A      1.385842   162A      1.395894  
     163A      1.405542   164A      1.424530   165A      1.434760  
     166A      1.443714   167A      1.451158   168A      1.462231  
     169A      1.488129   170A      1.497115   171A      1.512799  
     172A      1.517308   173A      1.532287   174A      1.545132  
     175A      1.555463   176A      1.578242   177A      1.585659  
     178A      1.591238   179A      1.594404   180A      1.604348  
     181A      1.613050   182A      1.626850   183A      1.642773  
     184A      1.653796   185A      1.670468   186A      1.688025  
     187A      1.696226   188A      1.701600   189A      1.735406  
     190A      1.751573   191A      1.764085   192A      1.781664  
     193A      1.792662   194A      1.800567   195A      1.826012  
     196A      1.839331   197A      1.870462   198A      1.882522  
     199A      1.889433   200A      1.911044   201A      1.946405  
     202A      1.947287   203A      1.967552   204A      1.972938  
     205A      2.011684   206A      2.038924   207A      2.059167  
     208A      2.082428   209A      2.102335   210A      2.146301  
     211A      2.164312   212A      2.189106   213A      2.214901  
     214A      2.233969   215A      2.323805   216A      2.371415  
     217A      2.411883   218A      2.444933   219A      2.535886  
     220A      2.541084   221A      2.578449   222A      2.628255  
     223A      2.629828   224A      2.678510   225A      2.708831  
     226A      2.737719   227A      2.763323   228A      2.768381  
     229A      2.780643   230A      2.792554   231A      2.815599  
     232A      2.843859   233A      2.851626   234A      2.854161  
     235A      2.893074   236A      2.915023   237A      2.925832  
     238A      2.953769   239A      2.984238   240A      2.999680  
     241A      3.016217   242A      3.045877   243A      3.059521  
     244A      3.067959   245A      3.073167   246A      3.095056  
     247A      3.107866   248A      3.132830   249A      3.149072  
     250A      3.168995   251A      3.200500   252A      3.206322  
     253A      3.247331   254A      3.261713   255A      3.279058  
     256A      3.306686   257A      3.326724   258A      3.351564  
     259A      3.361581   260A      3.374229   261A      3.392793  
     262A      3.401273   263A      3.436672   264A      3.447507  
     265A      3.455394   266A      3.490112   267A      3.510124  
     268A      3.526898   269A      3.532674   270A      3.543438  
     271A      3.556577   272A      3.582118   273A      3.603634  
     274A      3.607182   275A      3.614323   276A      3.620347  
     277A      3.642446   278A      3.663729   279A      3.684254  
     280A      3.695661   281A      3.701263   282A      3.725453  
     283A      3.740815   284A      3.761985   285A      3.766145  
     286A      3.779927   287A      3.793997   288A      3.802594  
     289A      3.808806   290A      3.822454   291A      3.850735  
     292A      3.854690   293A      3.856617   294A      3.867416  
     295A      3.887042   296A      3.896018   297A      3.913557  
     298A      3.925758   299A      3.972474   300A      3.998218  
     301A      4.001797   302A      4.016756   303A      4.030823  
     304A      4.058098   305A      4.091178   306A      4.096509  
     307A      4.103334   308A      4.128306   309A      4.148375  
     310A      4.160357   311A      4.180206   312A      4.200940  
     313A      4.215768   314A      4.243931   315A      4.266726  
     316A      4.292326   317A      4.297499   318A      4.312865  
     319A      4.325178   320A      4.337363   321A      4.366267  
     322A      4.376792   323A      4.389155   324A      4.396167  
     325A      4.401331   326A      4.407857   327A      4.417531  
     328A      4.443445   329A      4.448301   330A      4.471169  
     331A      4.476682   332A      4.490853   333A      4.507943  
     334A      4.512343   335A      4.523519   336A      4.535542  
     337A      4.587671   338A      4.605096   339A      4.633021  
     340A      4.640108   341A      4.647697   342A      4.666735  
     343A      4.683472   344A      4.688199   345A      4.712708  
     346A      4.744247   347A      4.752445   348A      4.764569  
     349A      4.770920   350A      4.786677   351A      4.788626  
     352A      4.800659   353A      4.808485   354A      4.817088  
     355A      4.831570   356A      4.834530   357A      4.852844  
     358A      4.873717   359A      4.892576   360A      4.901864  
     361A      4.913413   362A      4.920528   363A      4.940187  
     364A      4.953459   365A      4.961217   366A      4.981348  
     367A      4.989162   368A      5.017288   369A      5.019318  
     370A      5.026089   371A      5.033563   372A      5.047949  
     373A      5.062953   374A      5.088262   375A      5.115179  
     376A      5.145825   377A      5.162460   378A      5.198089  
     379A      5.215715   380A      5.226852   381A      5.274905  
     382A      5.282824   383A      5.306579   384A      5.319157  
     385A      5.328335   386A      5.354529   387A      5.392762  
     388A      5.409289   389A      5.456961   390A      5.486181  
     391A      5.511535   392A      5.539936   393A      5.573308  
     394A      5.583181   395A      5.619628   396A      5.633222  
     397A      5.681765   398A      5.689031   399A      5.717744  
     400A      5.753663   401A      5.763383   402A      5.768688  
     403A      5.785328   404A      5.827658   405A      5.871202  
     406A      5.901809   407A      5.982408   408A      6.001954  
     409A      6.095268   410A      6.104347   411A      6.171052  
     412A      6.202227   413A      6.243636   414A      6.308003  
     415A      6.375335   416A      6.380031   417A      6.435457  
     418A      6.438301   419A      6.444930   420A      6.450381  
     421A      6.464843   422A      6.488093   423A      6.520820  
     424A      6.531505   425A      6.564652   426A      6.643720  
     427A      6.700772   428A      6.824783   429A      6.831482  
     430A      6.896937   431A      7.042157   432A      7.154759  
     433A      7.202440   434A      7.292416   435A      7.449412  
     436A      7.502081   437A      7.534121   438A      7.599919  
     439A      7.694126   440A      7.696387   441A      7.802230  
     442A      7.846658   443A      7.862509   444A      7.944900  
     445A      7.985208   446A      8.060884   447A      8.179840  
     448A      8.247736   449A      8.527415   450A      8.632702  
     451A      8.847069   452A      9.167480   453A      9.452789  
     454A      9.678803   455A      9.734639   456A      9.801358  
     457A      9.881646   458A      9.916044   459A      9.934681  
     460A      9.953584   461A      9.974928   462A     10.119488  
     463A     10.355552   464A     10.459640   465A     11.100054  
     466A     11.416660   467A     11.572020   468A     11.645923  
     469A     12.034540   470A     12.458258   471A     13.091175  
     472A     13.741012   473A     13.969623   474A     14.636423  
     475A     15.332931   476A     43.004748   477A     45.080565  
     478A     45.780584   479A     61.254508   480A     61.894195  

    Final Occupation by Irrep:
              A 
    DOCC [    12 ]

  @DF-RHF Final Energy:  -117.11677604291616

   => Energetics <=

    Nuclear Repulsion Energy =             70.8371438172278403
    One-Electron Energy =                -296.7196265141885760
    Two-Electron Energy =                 108.7657066540445641
    Total Energy =                       -117.1167760429161575

Computation Completed


Properties will be evaluated at   0.000000,   0.000000,   0.000000 [a0]

Properties computed using the SCF density matrix

  Nuclear Dipole Moment: [e a0]
     X:  -124.2130      Y:     9.5681      Z:     0.8704

  Electronic Dipole Moment: [e a0]
     X:   124.2409      Y:    -9.3994      Z:    -0.8531

  Dipole Moment: [e a0]
     X:     0.0279      Y:     0.1687      Z:     0.0174     Total:     0.1718

  Dipole Moment: [D]
     X:     0.0710      Y:     0.4287      Z:     0.0441     Total:     0.4368


*** tstop() called on r282 at Sat Sep 11 00:43:58 2021
Module time:
	user time   =      29.74 seconds =       0.50 minutes
	system time =       0.54 seconds =       0.01 minutes
	total time  =         30 seconds =       0.50 minutes
Total time:
	user time   =     120.87 seconds =       2.01 minutes
	system time =       2.46 seconds =       0.04 minutes
	total time  =        123 seconds =       2.05 minutes
  Constructing Basis Sets for SAPT...

   => Loading Basis Set <=

    Name: (JUN-CC-PVTZ AUX)
    Role: RIFIT
    Keyword: DF_BASIS_SAPT
    atoms 1-3, 12-14  entry C          line   132 file /home/r08543048/miniconda3/share/psi4/basis/jun-cc-pvtz-ri.gbs 
    atoms 4-5         entry O          line   244 file /home/r08543048/miniconda3/share/psi4/basis/jun-cc-pvtz-ri.gbs 
    atoms 6-11, 15-20 entry H          line    30 file /home/r08543048/miniconda3/share/psi4/basis/jun-cc-pvtz-ri.gbs 


  //>>>>>>>>>>>>>>>>>>>>>>>>>>>>>>>>>>>//
  //               SAPT0               //
  //<<<<<<<<<<<<<<<<<<<<<<<<<<<<<<<<<<<//


*** tstart() called on r282
*** at Sat Sep 11 00:43:58 2021

        SAPT0  
    Ed Hohenstein
     6 June 2009

      Orbital Information
  --------------------------
    NSO        =       480
    NMO        =       480
    NRI        =      1136
    NOCC A     =        20
    NOCC B     =        12
    FOCC A     =         0
    FOCC B     =         0
    NVIR A     =       460
    NVIR B     =       468

    Elst10,r            =    -0.012326988766 [Eh]
    Exch10              =     0.014845646860 [Eh]
    Exch10 (S^2)        =     0.014722422850 [Eh]

    Iter     Energy [mEh]          dE [mEh]         Residual      Time [s]
       1      -0.94727356       0.947273558       4.549555771             1
       2      -1.14002443       0.192750869       1.874395821             1
       3      -1.15679759       0.016773166       0.623908161             2
       4      -1.15190349      -0.004894103       0.269160407             3
       5      -1.15029710      -0.001606393       0.082816353             4
       6      -1.15078874       0.000491646       0.038842216             5
       7      -1.15103000       0.000241261       0.010229969             6
       8      -1.15096809      -0.000061910       0.003511445             7
       9      -1.15094963      -0.000018460       0.000812196             8
      10      -1.15095492       0.000005284       0.000226575             9
      11      -1.15095512       0.000000200       0.000061256             9
      12      -1.15095479      -0.000000323       0.000020218            10
      13      -1.15095481       0.000000016       0.000009306            11
      14      -1.15095484       0.000000030       0.000003342            12
      15      -1.15095483      -0.000000006       0.000000989            13

    CHF Iterations converged


    Iter     Energy [mEh]          dE [mEh]         Residual      Time [s]
       1      -6.13366128       6.133661282      14.391648233             1
       2      -7.70679624       1.573134961       6.206184967             2
       3      -7.97312576       0.266329521       1.734666076             3
       4      -7.94703876      -0.026087008       0.561191365             3
       5      -7.92866729      -0.018371469       0.140050850             4
       6      -7.93083040       0.002163109       0.061535360             5
       7      -7.93191869       0.001088289       0.017726729             6
       8      -7.93155638      -0.000362303       0.003982059             6
       9      -7.93153699      -0.000019393       0.000905264             7
      10      -7.93154902       0.000012025       0.000282672             8
      11      -7.93155086       0.000001849       0.000068696             9
      12      -7.93154964      -0.000001229       0.000014828             9
      13      -7.93154972       0.000000082       0.000003583            10
      14      -7.93154975       0.000000037       0.000000849            11

    CHF Iterations converged

    Ind20,r (A<-B)      =    -0.001150954835 [Eh]
    Ind20,r (B<-A)      =    -0.007931549755 [Eh]
    Ind20,r             =    -0.009082504589 [Eh]
    Exch-Ind20,r (A<-B) =     0.000921775084 [Eh]
    Exch-Ind20,r (B<-A) =     0.005130169943 [Eh]
    Exch-Ind20,r        =     0.006051945027 [Eh]
    Disp20              =    -0.008765191519 [Eh]
    Disp20 (SS)         =    -0.004382595760 [Eh]
    Disp20 (OS)         =    -0.004382595760 [Eh]
    Exch-Disp20         =     0.001342631296 [Eh]
    Exch-Disp20 (SS)    =     0.000872789928 [Eh]
    Exch-Disp20 (OS)    =     0.000469841368 [Eh]

    SAPT Results 
  --------------------------------------------------------------------------------------------------------
    Electrostatics                -12.32698877 [mEh]      -7.73530223 [kcal/mol]     -32.36450455 [kJ/mol]
      Elst10,r                    -12.32698877 [mEh]      -7.73530223 [kcal/mol]     -32.36450455 [kJ/mol]

    Exchange                       14.84564686 [mEh]       9.31578405 [kcal/mol]      38.97724046 [kJ/mol]
      Exch10                       14.84564686 [mEh]       9.31578405 [kcal/mol]      38.97724046 [kJ/mol]
      Exch10(S^2)                  14.72242285 [mEh]       9.23845982 [kcal/mol]      38.65371587 [kJ/mol]

    Induction                      -5.21728422 [mEh]      -3.27389527 [kcal/mol]     -13.69797783 [kJ/mol]
      Ind20,r                      -9.08250459 [mEh]      -5.69935768 [kcal/mol]     -23.84611251 [kJ/mol]
      Exch-Ind20,r                  6.05194503 [mEh]       3.79765284 [kcal/mol]      15.88937948 [kJ/mol]
      delta HF,r (2)               -2.18672466 [mEh]      -1.37219044 [kcal/mol]      -5.74124479 [kJ/mol]

    Dispersion                     -7.42256022 [mEh]      -4.65772686 [kcal/mol]     -19.48792918 [kJ/mol]
      Disp20                       -8.76519152 [mEh]      -5.50024072 [kcal/mol]     -23.01300716 [kJ/mol]
      Exch-Disp20                   1.34263130 [mEh]       0.84251386 [kcal/mol]       3.52507798 [kJ/mol]
      Disp20 (SS)                  -4.38259576 [mEh]      -2.75012036 [kcal/mol]     -11.50650358 [kJ/mol]
      Disp20 (OS)                  -4.38259576 [mEh]      -2.75012036 [kcal/mol]     -11.50650358 [kJ/mol]
      Exch-Disp20 (SS)              0.87278993 [mEh]       0.54768395 [kcal/mol]       2.29150964 [kJ/mol]
      Exch-Disp20 (OS)              0.46984137 [mEh]       0.29482991 [kcal/mol]       1.23356834 [kJ/mol]

  Total HF                         -2.69862612 [mEh]      -1.69341346 [kcal/mol]      -7.08524191 [kJ/mol]
  Total SAPT0                     -10.12118635 [mEh]      -6.35114032 [kcal/mol]     -26.57317109 [kJ/mol]

  Special recipe for scaled SAPT0 (see Manual):
    Electrostatics sSAPT0         -12.32698877 [mEh]      -7.73530223 [kcal/mol]     -32.36450455 [kJ/mol]
    Exchange sSAPT0                14.84564686 [mEh]       9.31578405 [kcal/mol]      38.97724046 [kJ/mol]
    Induction sSAPT0               -5.06404773 [mEh]      -3.17773793 [kcal/mol]     -13.29565549 [kJ/mol]
    Dispersion sSAPT0              -7.38856452 [mEh]      -4.63639424 [kcal/mol]     -19.39867349 [kJ/mol]
  Total sSAPT0                     -9.93395416 [mEh]      -6.23365035 [kcal/mol]     -26.08159307 [kJ/mol]
  --------------------------------------------------------------------------------------------------------

*** tstop() called on r282 at Sat Sep 11 00:45:41 2021
Module time:
	user time   =      84.29 seconds =       1.40 minutes
	system time =      15.92 seconds =       0.27 minutes
	total time  =        103 seconds =       1.72 minutes
Total time:
	user time   =     205.30 seconds =       3.42 minutes
	system time =      18.38 seconds =       0.31 minutes
	total time  =        226 seconds =       3.77 minutes

    Psi4 stopped on: Saturday, 11 September 2021 12:45AM
    Psi4 wall time for execution: 0:03:45.83

*** Psi4 exiting successfully. Buy a developer a beer!
