
    -----------------------------------------------------------------------
          Psi4: An Open-Source Ab Initio Electronic Structure Package
                               Psi4 1.3.2 release

                         Git: Rev {HEAD} ecbda83 


    R. M. Parrish, L. A. Burns, D. G. A. Smith, A. C. Simmonett,
    A. E. DePrince III, E. G. Hohenstein, U. Bozkaya, A. Yu. Sokolov,
    R. Di Remigio, R. M. Richard, J. F. Gonthier, A. M. James,
    H. R. McAlexander, A. Kumar, M. Saitow, X. Wang, B. P. Pritchard,
    P. Verma, H. F. Schaefer III, K. Patkowski, R. A. King, E. F. Valeev,
    F. A. Evangelista, J. M. Turney, T. D. Crawford, and C. D. Sherrill,
    J. Chem. Theory Comput. 13(7) pp 3185--3197 (2017).
    (doi: 10.1021/acs.jctc.7b00174)


                         Additional Contributions by
    P. Kraus, H. Kruse, M. H. Lechner, M. C. Schieber, R. A. Shaw,
    A. Alenaizan, R. Galvelis, Z. L. Glick, S. Lehtola, and J. P. Misiewicz

    -----------------------------------------------------------------------


    Psi4 started on: Saturday, 11 September 2021 12:15AM

    Process ID: 57359
    Host:       r282
    PSIDATADIR: /home/r08543048/miniconda3/share/psi4
    Memory:     500.0 MiB
    Threads:    1
    
  ==> Input File <==

--------------------------------------------------------------------------
# Any line starting with the # character is a comment line
#! Sample  computation

memory 22 gb

molecule Dimer {
0 1
 C   -1.531399   -0.009779    0.128695
 O   -1.027102    0.480606    1.117251
 O   -0.840150   -0.754416   -0.760663
 H    0.084608   -0.800320   -0.443778
 C   -2.970469    0.120255   -0.271294
 H   -3.497657    0.725247    0.457369
 H   -3.034254    0.575580   -1.257707
 H   -3.419646   -0.868899   -0.336454
  
  
  
  
  
  
  
  
    
    
 --
0 1
 C   2.092801   -1.054718    0.611572
 C   2.380026   -0.176207   -0.357447
 C   2.042204    1.279504   -0.304856
 H   2.373885   -2.095181    0.523707
 H   1.577752   -0.740084    1.510751
 H   2.896511   -0.531342   -1.243811
 H   1.447786    1.571211   -1.172472
 H   1.478526    1.517897    0.595153
 H   2.951526    1.882046   -0.325471
   
   
   
   
   
   




units angstrom

no_reorient
symmetry c1
}

set globals{
  basis jun-cc-pvtz
}

energy('sapt0')


--------------------------------------------------------------------------

  Memory set to  20.489 GiB by Python driver.

  //>>>>>>>>>>>>>>>>>>>>>>>>>>>>>>>>>>>//
  //              Dimer HF             //
  //<<<<<<<<<<<<<<<<<<<<<<<<<<<<<<<<<<<//


*** tstart() called on r282
*** at Sat Sep 11 00:15:39 2021

   => Loading Basis Set <=

    Name: JUN-CC-PVTZ
    Role: ORBITAL
    Keyword: BASIS
    atoms 1, 5, 9-11    entry C          line   217 file /home/r08543048/miniconda3/share/psi4/basis/jun-cc-pvtz.gbs 
    atoms 2-3           entry O          line   305 file /home/r08543048/miniconda3/share/psi4/basis/jun-cc-pvtz.gbs 
    atoms 4, 6-8, 12-17 entry H          line    36 file /home/r08543048/miniconda3/share/psi4/basis/jun-cc-pvtz.gbs 


         ---------------------------------------------------------
                                   SCF
               by Justin Turney, Rob Parrish, Andy Simmonett
                          and Daniel G. A. Smith
                              RHF Reference
                        1 Threads,  20980 MiB Core
         ---------------------------------------------------------

  ==> Geometry <==

    Molecular point group: c1
    Full point group: C1

    Geometry (in Angstrom), charge = 0, multiplicity = 1:

       Center              X                  Y                   Z               Mass       
    ------------   -----------------  -----------------  -----------------  -----------------
         C           -1.503700122264     0.002223573425     0.112258165999    12.000000000000
         O           -0.999403122264     0.492608573425     1.100814165999    15.994914619570
         O           -0.812451122264    -0.742413426575    -0.777099834001    15.994914619570
         H            0.112306877736    -0.788317426575    -0.460214834001     1.007825032230
         C           -2.942770122264     0.132257573425    -0.287730834001    12.000000000000
         H           -3.469958122264     0.737249573425     0.440932165999     1.007825032230
         H           -3.006555122264     0.587582573425    -1.274143834001     1.007825032230
         H           -3.391947122264    -0.856896426575    -0.352890834001     1.007825032230
         C            2.120499877736    -1.042715426575     0.595135165999    12.000000000000
         C            2.407724877736    -0.164204426575    -0.373883834001    12.000000000000
         C            2.069902877736     1.291506573425    -0.321292834001    12.000000000000
         H            2.401583877736    -2.083178426575     0.507270165999     1.007825032230
         H            1.605450877736    -0.728081426575     1.494314165999     1.007825032230
         H            2.924209877736    -0.519339426575    -1.260247834001     1.007825032230
         H            1.475484877736     1.583213573425    -1.188908834001     1.007825032230
         H            1.506224877736     1.529899573425     0.578716165999     1.007825032230
         H            2.979224877736     1.894048573425    -0.341907834001     1.007825032230

  Running in c1 symmetry.

  Rotational constants: A =      0.15647  B =      0.03824  C =      0.03676 [cm^-1]
  Rotational constants: A =   4690.70846  B =   1146.29679  C =   1102.14336 [MHz]
  Nuclear repulsion =  295.429263123701332

  Charge       = 0
  Multiplicity = 1
  Electrons    = 56
  Nalpha       = 28
  Nbeta        = 28

  ==> Algorithm <==

  SCF Algorithm Type is DF.
  DIIS enabled.
  MOM disabled.
  Fractional occupation disabled.
  Guess Type is SAD.
  Energy threshold   = 1.00e-08
  Density threshold  = 1.00e-08
  Integral threshold = 0.00e+00

  ==> Primary Basis <==

  Basis Set: JUN-CC-PVTZ
    Blend: JUN-CC-PVTZ
    Number of shells: 151
    Number of basis function: 413
    Number of Cartesian functions: 465
    Spherical Harmonics?: true
    Max angular momentum: 3

   => Loading Basis Set <=

    Name: (JUN-CC-PVTZ AUX)
    Role: JKFIT
    Keyword: DF_BASIS_SCF
    atoms 1, 5, 9-11    entry C          line   152 file /home/r08543048/miniconda3/share/psi4/basis/jun-cc-pvtz-jkfit.gbs 
    atoms 2-3           entry O          line   272 file /home/r08543048/miniconda3/share/psi4/basis/jun-cc-pvtz-jkfit.gbs 
    atoms 4, 6-8, 12-17 entry H          line    70 file /home/r08543048/miniconda3/share/psi4/basis/jun-cc-pvtz-jkfit.gbs 

  ==> Pre-Iterations <==

   -------------------------------------------------------
    Irrep   Nso     Nmo     Nalpha   Nbeta   Ndocc  Nsocc
   -------------------------------------------------------
     A        413     413       0       0       0       0
   -------------------------------------------------------
    Total     413     413      28      28      28       0
   -------------------------------------------------------

  ==> Integral Setup <==

  ==> DiskDFJK: Density-Fitted J/K Matrices <==

    J tasked:                  Yes
    K tasked:                  Yes
    wK tasked:                  No
    OpenMP threads:              1
    Integrals threads:           1
    Memory [MiB]:            15735
    Algorithm:                Core
    Integral Cache:           SAVE
    Schwarz Cutoff:          1E-12
    Fitting Condition:       1E-10

   => Auxiliary Basis Set <=

  Basis Set: (JUN-CC-PVTZ AUX)
    Blend: JUN-CC-PVTZ-JKFIT
    Number of shells: 303
    Number of basis function: 965
    Number of Cartesian functions: 1162
    Spherical Harmonics?: true
    Max angular momentum: 4

  Minimum eigenvalue in the overlap matrix is 3.9149339026E-05.
  Using Symmetric Orthogonalization.

  SCF Guess: Superposition of Atomic Densities via on-the-fly atomic UHF.

  ==> Iterations <==

                           Total Energy        Delta E     RMS |[F,P]|

   @DF-RHF iter SAD:  -343.49249340854828   -3.43492e+02   0.00000e+00 
   @DF-RHF iter   1:  -344.75086018922457   -1.25837e+00   1.78155e-03 DIIS
   @DF-RHF iter   2:  -344.96215775637796   -2.11298e-01   9.64785e-04 DIIS
   @DF-RHF iter   3:  -345.01828145515077   -5.61237e-02   1.90923e-04 DIIS
   @DF-RHF iter   4:  -345.02199902169906   -3.71757e-03   8.44269e-05 DIIS
   @DF-RHF iter   5:  -345.02273345818901   -7.34436e-04   1.72604e-05 DIIS
   @DF-RHF iter   6:  -345.02277919153175   -4.57333e-05   8.74917e-06 DIIS
   @DF-RHF iter   7:  -345.02279013919343   -1.09477e-05   2.72975e-06 DIIS
   @DF-RHF iter   8:  -345.02279213341387   -1.99422e-06   9.30125e-07 DIIS
   @DF-RHF iter   9:  -345.02279236269806   -2.29284e-07   2.51487e-07 DIIS
   @DF-RHF iter  10:  -345.02279237722098   -1.45229e-08   7.32574e-08 DIIS
   @DF-RHF iter  11:  -345.02279237814889   -9.27912e-10   2.29732e-08 DIIS
   @DF-RHF iter  12:  -345.02279237823410   -8.52083e-11   8.20375e-09 DIIS
  Energy and wave function converged.


  ==> Post-Iterations <==

    Orbital Energies [Eh]
    ---------------------

    Doubly Occupied:                                                      

       1A    -20.600019     2A    -20.543418     3A    -11.383468  
       4A    -11.245865     5A    -11.239975     6A    -11.226364  
       7A    -11.221320     8A     -1.453878     9A     -1.351489  
      10A     -1.074670    11A     -1.023092    12A     -0.939046  
      13A     -0.815118    14A     -0.765676    15A     -0.699295  
      16A     -0.673114    17A     -0.647750    18A     -0.643472  
      19A     -0.588623    20A     -0.579156    21A     -0.573998  
      22A     -0.564120    23A     -0.553841    24A     -0.526924  
      25A     -0.500250    26A     -0.474877    27A     -0.448928  
      28A     -0.370936  

    Virtual:                                                              

      29A      0.046061    30A      0.055326    31A      0.056474  
      32A      0.063923    33A      0.077792    34A      0.081230  
      35A      0.084816    36A      0.100168    37A      0.103728  
      38A      0.105577    39A      0.113996    40A      0.118031  
      41A      0.134363    42A      0.140760    43A      0.144351  
      44A      0.153554    45A      0.176641    46A      0.179036  
      47A      0.183208    48A      0.188208    49A      0.196571  
      50A      0.198640    51A      0.202573    52A      0.204480  
      53A      0.231325    54A      0.244768    55A      0.256257  
      56A      0.271127    57A      0.273657    58A      0.281074  
      59A      0.285009    60A      0.292195    61A      0.302524  
      62A      0.306595    63A      0.317277    64A      0.319971  
      65A      0.325080    66A      0.333653    67A      0.339141  
      68A      0.341963    69A      0.350004    70A      0.352908  
      71A      0.363622    72A      0.369211    73A      0.380196  
      74A      0.385372    75A      0.396097    76A      0.402824  
      77A      0.404829    78A      0.418056    79A      0.428238  
      80A      0.441395    81A      0.443912    82A      0.453639  
      83A      0.473004    84A      0.482176    85A      0.493305  
      86A      0.503853    87A      0.510805    88A      0.518000  
      89A      0.522428    90A      0.532372    91A      0.546411  
      92A      0.556144    93A      0.568904    94A      0.585905  
      95A      0.593330    96A      0.604509    97A      0.619157  
      98A      0.622902    99A      0.666577   100A      0.673463  
     101A      0.684539   102A      0.688941   103A      0.701191  
     104A      0.706669   105A      0.713541   106A      0.742682  
     107A      0.746541   108A      0.751249   109A      0.758362  
     110A      0.770802   111A      0.776726   112A      0.786742  
     113A      0.801396   114A      0.804959   115A      0.814957  
     116A      0.825471   117A      0.833980   118A      0.841559  
     119A      0.847796   120A      0.859691   121A      0.873070  
     122A      0.885577   123A      0.892410   124A      0.907315  
     125A      0.910013   126A      0.916011   127A      0.944243  
     128A      0.949032   129A      0.962260   130A      0.974051  
     131A      0.981299   132A      0.992585   133A      1.010314  
     134A      1.026246   135A      1.060507   136A      1.069327  
     137A      1.081546   138A      1.091206   139A      1.101081  
     140A      1.113628   141A      1.142005   142A      1.146452  
     143A      1.155292   144A      1.164587   145A      1.167121  
     146A      1.183790   147A      1.203991   148A      1.236505  
     149A      1.261867   150A      1.272539   151A      1.280776  
     152A      1.285920   153A      1.309624   154A      1.314022  
     155A      1.319172   156A      1.345101   157A      1.359024  
     158A      1.374532   159A      1.380577   160A      1.381840  
     161A      1.398939   162A      1.414655   163A      1.420901  
     164A      1.445039   165A      1.461704   166A      1.475613  
     167A      1.483280   168A      1.493452   169A      1.513011  
     170A      1.527702   171A      1.538108   172A      1.548415  
     173A      1.567471   174A      1.572501   175A      1.576235  
     176A      1.598796   177A      1.611644   178A      1.617654  
     179A      1.639858   180A      1.647256   181A      1.660175  
     182A      1.678323   183A      1.698803   184A      1.728101  
     185A      1.745644   186A      1.751386   187A      1.777075  
     188A      1.794429   189A      1.825854   190A      1.860859  
     191A      1.866197   192A      1.898054   193A      1.901114  
     194A      1.920658   195A      1.941461   196A      1.979593  
     197A      2.044494   198A      2.093089   199A      2.186199  
     200A      2.209578   201A      2.234188   202A      2.259487  
     203A      2.329804   204A      2.349454   205A      2.402111  
     206A      2.443139   207A      2.462576   208A      2.567478  
     209A      2.615926   210A      2.643841   211A      2.707550  
     212A      2.725256   213A      2.745231   214A      2.762207  
     215A      2.774285   216A      2.794348   217A      2.831355  
     218A      2.839204   219A      2.852285   220A      2.874619  
     221A      2.889481   222A      2.920480   223A      2.956539  
     224A      2.965916   225A      2.986570   226A      3.013856  
     227A      3.032266   228A      3.054176   229A      3.075280  
     230A      3.083476   231A      3.101145   232A      3.106190  
     233A      3.116131   234A      3.123813   235A      3.167961  
     236A      3.171194   237A      3.184350   238A      3.207100  
     239A      3.214282   240A      3.226902   241A      3.250859  
     242A      3.258673   243A      3.267261   244A      3.299263  
     245A      3.302301   246A      3.318900   247A      3.344501  
     248A      3.357996   249A      3.364362   250A      3.381720  
     251A      3.393112   252A      3.411590   253A      3.421864  
     254A      3.431662   255A      3.443932   256A      3.456941  
     257A      3.468013   258A      3.481695   259A      3.493040  
     260A      3.499916   261A      3.515305   262A      3.527689  
     263A      3.544475   264A      3.578874   265A      3.591665  
     266A      3.598436   267A      3.632272   268A      3.637997  
     269A      3.659347   270A      3.667838   271A      3.683169  
     272A      3.701204   273A      3.716856   274A      3.724753  
     275A      3.743640   276A      3.756093   277A      3.757073  
     278A      3.771554   279A      3.777962   280A      3.780462  
     281A      3.800875   282A      3.805816   283A      3.823043  
     284A      3.840025   285A      3.852212   286A      3.862414  
     287A      3.890003   288A      3.923276   289A      3.971945  
     290A      4.001149   291A      4.012424   292A      4.037051  
     293A      4.045633   294A      4.078238   295A      4.086587  
     296A      4.111227   297A      4.143707   298A      4.168184  
     299A      4.170165   300A      4.189597   301A      4.206660  
     302A      4.252883   303A      4.279451   304A      4.301246  
     305A      4.309361   306A      4.317132   307A      4.321679  
     308A      4.340618   309A      4.346578   310A      4.360917  
     311A      4.379750   312A      4.388458   313A      4.397270  
     314A      4.405908   315A      4.426596   316A      4.438857  
     317A      4.456129   318A      4.470853   319A      4.489966  
     320A      4.502697   321A      4.523710   322A      4.538337  
     323A      4.578577   324A      4.603033   325A      4.612294  
     326A      4.631754   327A      4.635165   328A      4.659345  
     329A      4.674797   330A      4.719361   331A      4.744988  
     332A      4.783008   333A      4.786720   334A      4.792600  
     335A      4.813589   336A      4.841434   337A      4.848177  
     338A      4.898202   339A      4.915166   340A      4.939023  
     341A      5.027081   342A      5.047612   343A      5.060546  
     344A      5.089623   345A      5.156233   346A      5.184624  
     347A      5.195779   348A      5.208450   349A      5.243951  
     350A      5.305437   351A      5.313693   352A      5.327875  
     353A      5.356509   354A      5.387959   355A      5.396736  
     356A      5.445311   357A      5.452974   358A      5.512969  
     359A      5.515759   360A      5.566746   361A      5.570951  
     362A      5.578279   363A      5.632397   364A      5.646653  
     365A      5.651717   366A      5.683322   367A      5.686815  
     368A      5.688554   369A      5.696509   370A      5.734961  
     371A      5.767382   372A      5.785121   373A      5.848381  
     374A      5.893267   375A      5.894052   376A      5.906511  
     377A      5.983531   378A      6.066141   379A      6.094346  
     380A      6.112484   381A      6.287090   382A      6.402363  
     383A      6.420905   384A      6.438814   385A      6.443803  
     386A      6.469549   387A      6.498735   388A      6.517679  
     389A      6.689924   390A      6.720593   391A      6.793752  
     392A      6.977919   393A      7.015603   394A      7.088874  
     395A      7.221754   396A      7.270419   397A      7.288279  
     398A      7.338513   399A      7.402051   400A      7.413983  
     401A      7.466217   402A      7.648157   403A      7.744297  
     404A      7.848583   405A      7.966363   406A      8.151034  
     407A     12.114774   408A     12.414897   409A     13.857833  
     410A     14.363119   411A     14.694415   412A     14.781380  
     413A     15.298936  

    Final Occupation by Irrep:
              A 
    DOCC [    28 ]

  @DF-RHF Final Energy:  -345.02279237823410

   => Energetics <=

    Nuclear Repulsion Energy =            295.4292631237013325
    One-Electron Energy =               -1055.4467463894695811
    Two-Electron Energy =                 414.9946908875342046
    Total Energy =                       -345.0227923782341009

Computation Completed


Properties will be evaluated at   0.000000,   0.000000,   0.000000 [a0]

Properties computed using the SCF density matrix

  Nuclear Dipole Moment: [e a0]
     X:     2.9312      Y:     1.2702      Z:    -1.7394

  Electronic Dipole Moment: [e a0]
     X:    -3.0504      Y:    -1.3967      Z:     1.1042

  Dipole Moment: [e a0]
     X:    -0.1191      Y:    -0.1265      Z:    -0.6352     Total:     0.6585

  Dipole Moment: [D]
     X:    -0.3028      Y:    -0.3216      Z:    -1.6144     Total:     1.6737


*** tstop() called on r282 at Sat Sep 11 00:16:11 2021
Module time:
	user time   =      31.22 seconds =       0.52 minutes
	system time =       0.88 seconds =       0.01 minutes
	total time  =         32 seconds =       0.53 minutes
Total time:
	user time   =      31.22 seconds =       0.52 minutes
	system time =       0.88 seconds =       0.01 minutes
	total time  =         32 seconds =       0.53 minutes

  //>>>>>>>>>>>>>>>>>>>>>>>>>>>>>>>>>>>//
  //            Monomer A HF           //
  //<<<<<<<<<<<<<<<<<<<<<<<<<<<<<<<<<<<//


*** tstart() called on r282
*** at Sat Sep 11 00:16:11 2021

   => Loading Basis Set <=

    Name: JUN-CC-PVTZ
    Role: ORBITAL
    Keyword: BASIS
    atoms 1, 5, 9-11    entry C          line   217 file /home/r08543048/miniconda3/share/psi4/basis/jun-cc-pvtz.gbs 
    atoms 2-3           entry O          line   305 file /home/r08543048/miniconda3/share/psi4/basis/jun-cc-pvtz.gbs 
    atoms 4, 6-8, 12-17 entry H          line    36 file /home/r08543048/miniconda3/share/psi4/basis/jun-cc-pvtz.gbs 


         ---------------------------------------------------------
                                   SCF
               by Justin Turney, Rob Parrish, Andy Simmonett
                          and Daniel G. A. Smith
                              RHF Reference
                        1 Threads,  20980 MiB Core
         ---------------------------------------------------------

  ==> Geometry <==

    Molecular point group: c1
    Full point group: C1

    Geometry (in Angstrom), charge = 0, multiplicity = 1:

       Center              X                  Y                   Z               Mass       
    ------------   -----------------  -----------------  -----------------  -----------------
         C           -1.503700122264     0.002223573425     0.112258165999    12.000000000000
         O           -0.999403122264     0.492608573425     1.100814165999    15.994914619570
         O           -0.812451122264    -0.742413426575    -0.777099834001    15.994914619570
         H            0.112306877736    -0.788317426575    -0.460214834001     1.007825032230
         C           -2.942770122264     0.132257573425    -0.287730834001    12.000000000000
         H           -3.469958122264     0.737249573425     0.440932165999     1.007825032230
         H           -3.006555122264     0.587582573425    -1.274143834001     1.007825032230
         H           -3.391947122264    -0.856896426575    -0.352890834001     1.007825032230
      Gh(C)           2.120499877736    -1.042715426575     0.595135165999    12.000000000000
      Gh(C)           2.407724877736    -0.164204426575    -0.373883834001    12.000000000000
      Gh(C)           2.069902877736     1.291506573425    -0.321292834001    12.000000000000
      Gh(H)           2.401583877736    -2.083178426575     0.507270165999     1.007825032230
      Gh(H)           1.605450877736    -0.728081426575     1.494314165999     1.007825032230
      Gh(H)           2.924209877736    -0.519339426575    -1.260247834001     1.007825032230
      Gh(H)           1.475484877736     1.583213573425    -1.188908834001     1.007825032230
      Gh(H)           1.506224877736     1.529899573425     0.578716165999     1.007825032230
      Gh(H)           2.979224877736     1.894048573425    -0.341907834001     1.007825032230

  Running in c1 symmetry.

  Rotational constants: A =      0.15647  B =      0.03824  C =      0.03676 [cm^-1]
  Rotational constants: A =   4690.70846  B =   1146.29679  C =   1102.14336 [MHz]
  Nuclear repulsion =  121.086608549753336

  Charge       = 0
  Multiplicity = 1
  Electrons    = 32
  Nalpha       = 16
  Nbeta        = 16

  ==> Algorithm <==

  SCF Algorithm Type is DF.
  DIIS enabled.
  MOM disabled.
  Fractional occupation disabled.
  Guess Type is SAD.
  Energy threshold   = 1.00e-08
  Density threshold  = 1.00e-08
  Integral threshold = 0.00e+00

  ==> Primary Basis <==

  Basis Set: JUN-CC-PVTZ
    Blend: JUN-CC-PVTZ
    Number of shells: 151
    Number of basis function: 413
    Number of Cartesian functions: 465
    Spherical Harmonics?: true
    Max angular momentum: 3

   => Loading Basis Set <=

    Name: (JUN-CC-PVTZ AUX)
    Role: JKFIT
    Keyword: DF_BASIS_SCF
    atoms 1, 5, 9-11    entry C          line   152 file /home/r08543048/miniconda3/share/psi4/basis/jun-cc-pvtz-jkfit.gbs 
    atoms 2-3           entry O          line   272 file /home/r08543048/miniconda3/share/psi4/basis/jun-cc-pvtz-jkfit.gbs 
    atoms 4, 6-8, 12-17 entry H          line    70 file /home/r08543048/miniconda3/share/psi4/basis/jun-cc-pvtz-jkfit.gbs 

  ==> Pre-Iterations <==

   -------------------------------------------------------
    Irrep   Nso     Nmo     Nalpha   Nbeta   Ndocc  Nsocc
   -------------------------------------------------------
     A        413     413       0       0       0       0
   -------------------------------------------------------
    Total     413     413      16      16      16       0
   -------------------------------------------------------

  ==> Integral Setup <==

  ==> DiskDFJK: Density-Fitted J/K Matrices <==

    J tasked:                  Yes
    K tasked:                  Yes
    wK tasked:                  No
    OpenMP threads:              1
    Integrals threads:           1
    Memory [MiB]:            15735
    Algorithm:                Core
    Integral Cache:           LOAD
    Schwarz Cutoff:          1E-12
    Fitting Condition:       1E-10

   => Auxiliary Basis Set <=

  Basis Set: (JUN-CC-PVTZ AUX)
    Blend: JUN-CC-PVTZ-JKFIT
    Number of shells: 303
    Number of basis function: 965
    Number of Cartesian functions: 1162
    Spherical Harmonics?: true
    Max angular momentum: 4

  Minimum eigenvalue in the overlap matrix is 3.9149339026E-05.
  Using Symmetric Orthogonalization.

  SCF Guess: Superposition of Atomic Densities via on-the-fly atomic UHF.

  ==> Iterations <==

                           Total Energy        Delta E     RMS |[F,P]|

   @DF-RHF iter SAD:  -227.00073918585670   -2.27001e+02   0.00000e+00 
   @DF-RHF iter   1:  -227.74567171106602   -7.44933e-01   1.44875e-03 DIIS
   @DF-RHF iter   2:  -227.85901680051509   -1.13345e-01   8.88752e-04 DIIS
   @DF-RHF iter   3:  -227.90128643362340   -4.22696e-02   1.44442e-04 DIIS
   @DF-RHF iter   4:  -227.90349630118573   -2.20987e-03   6.59203e-05 DIIS
   @DF-RHF iter   5:  -227.90397838960465   -4.82088e-04   1.62542e-05 DIIS
   @DF-RHF iter   6:  -227.90402021489194   -4.18253e-05   7.81325e-06 DIIS
   @DF-RHF iter   7:  -227.90403081914698   -1.06043e-05   2.60763e-06 DIIS
   @DF-RHF iter   8:  -227.90403262306540   -1.80392e-06   6.95137e-07 DIIS
   @DF-RHF iter   9:  -227.90403276806401   -1.44999e-07   1.44490e-07 DIIS
   @DF-RHF iter  10:  -227.90403277323071   -5.16670e-09   3.83701e-08 DIIS
   @DF-RHF iter  11:  -227.90403277345590   -2.25185e-10   1.08395e-08 DIIS
   @DF-RHF iter  12:  -227.90403277347934   -2.34479e-11   3.11295e-09 DIIS
  Energy and wave function converged.


  ==> Post-Iterations <==

    Orbital Energies [Eh]
    ---------------------

    Doubly Occupied:                                                      

       1A    -20.618330     2A    -20.551441     3A    -11.391421  
       4A    -11.245976     5A     -1.465732     6A     -1.360820  
       7A     -1.029936     8A     -0.826109     9A     -0.706545  
      10A     -0.681399    11A     -0.652661    12A     -0.584371  
      13A     -0.575298    14A     -0.563525    15A     -0.483843  
      16A     -0.456189  

    Virtual:                                                              

      17A      0.032675    18A      0.044335    19A      0.049168  
      20A      0.061045    21A      0.071763    22A      0.078271  
      23A      0.082789    24A      0.096934    25A      0.099808  
      26A      0.105955    27A      0.110060    28A      0.115171  
      29A      0.122866    30A      0.141486    31A      0.142546  
      32A      0.145030    33A      0.154343    34A      0.160621  
      35A      0.171617    36A      0.177456    37A      0.183667  
      38A      0.195396    39A      0.198444    40A      0.211543  
      41A      0.236107    42A      0.243266    43A      0.250405  
      44A      0.262142    45A      0.268058    46A      0.275971  
      47A      0.284066    48A      0.289750    49A      0.293640  
      50A      0.297269    51A      0.312069    52A      0.322113  
      53A      0.323406    54A      0.329375    55A      0.335996  
      56A      0.343655    57A      0.351551    58A      0.367235  
      59A      0.372139    60A      0.375844    61A      0.390656  
      62A      0.394729    63A      0.397338    64A      0.405538  
      65A      0.410809    66A      0.433182    67A      0.442401  
      68A      0.445001    69A      0.451270    70A      0.459586  
      71A      0.473212    72A      0.489424    73A      0.498035  
      74A      0.504026    75A      0.520550    76A      0.525197  
      77A      0.530558    78A      0.540929    79A      0.559962  
      80A      0.563736    81A      0.574837    82A      0.587958  
      83A      0.602907    84A      0.608051    85A      0.612216  
      86A      0.626581    87A      0.644179    88A      0.647670  
      89A      0.658934    90A      0.663884    91A      0.677995  
      92A      0.682412    93A      0.691991    94A      0.694916  
      95A      0.703351    96A      0.724547    97A      0.728733  
      98A      0.747192    99A      0.768364   100A      0.787685  
     101A      0.798554   102A      0.801009   103A      0.819296  
     104A      0.825545   105A      0.840256   106A      0.861143  
     107A      0.870331   108A      0.872993   109A      0.900765  
     110A      0.909544   111A      0.933267   112A      0.962452  
     113A      0.973541   114A      0.988556   115A      1.002056  
     116A      1.054202   117A      1.066967   118A      1.079185  
     119A      1.095576   120A      1.111647   121A      1.123514  
     122A      1.144458   123A      1.146659   124A      1.160903  
     125A      1.168753   126A      1.183781   127A      1.196772  
     128A      1.207293   129A      1.211882   130A      1.227271  
     131A      1.244960   132A      1.253926   133A      1.262975  
     134A      1.274328   135A      1.277601   136A      1.286839  
     137A      1.309343   138A      1.313792   139A      1.319552  
     140A      1.328391   141A      1.343558   142A      1.354960  
     143A      1.357774   144A      1.371233   145A      1.378136  
     146A      1.381983   147A      1.402720   148A      1.413337  
     149A      1.426125   150A      1.435091   151A      1.440325  
     152A      1.476902   153A      1.479456   154A      1.499020  
     155A      1.501599   156A      1.520899   157A      1.526978  
     158A      1.547455   159A      1.551768   160A      1.557585  
     161A      1.574586   162A      1.588588   163A      1.592801  
     164A      1.596415   165A      1.613465   166A      1.628862  
     167A      1.646850   168A      1.667399   169A      1.672055  
     170A      1.690989   171A      1.700067   172A      1.710224  
     173A      1.748291   174A      1.759474   175A      1.775324  
     176A      1.791319   177A      1.833605   178A      1.864078  
     179A      1.881654   180A      1.917384   181A      1.942945  
     182A      1.990708   183A      2.003213   184A      2.045441  
     185A      2.072079   186A      2.095890   187A      2.126543  
     188A      2.198450   189A      2.225335   190A      2.238492  
     191A      2.262785   192A      2.275786   193A      2.320536  
     194A      2.350249   195A      2.371199   196A      2.387105  
     197A      2.434095   198A      2.445003   199A      2.458838  
     200A      2.492340   201A      2.519570   202A      2.551993  
     203A      2.598165   204A      2.616106   205A      2.652648  
     206A      2.677147   207A      2.745496   208A      2.773956  
     209A      2.846536   210A      2.867184   211A      2.898452  
     212A      2.959832   213A      2.986112   214A      3.040180  
     215A      3.088576   216A      3.095460   217A      3.168894  
     218A      3.201084   219A      3.231108   220A      3.271394  
     221A      3.355520   222A      3.361247   223A      3.407859  
     224A      3.421174   225A      3.425910   226A      3.439885  
     227A      3.444854   228A      3.478094   229A      3.500504  
     230A      3.539513   231A      3.544484   232A      3.551663  
     233A      3.589759   234A      3.598462   235A      3.612689  
     236A      3.618722   237A      3.633414   238A      3.652776  
     239A      3.665134   240A      3.675768   241A      3.693023  
     242A      3.699846   243A      3.702443   244A      3.736892  
     245A      3.742662   246A      3.745122   247A      3.766645  
     248A      3.772817   249A      3.777963   250A      3.791331  
     251A      3.828550   252A      3.833922   253A      3.845052  
     254A      3.868442   255A      3.883835   256A      3.892471  
     257A      3.939275   258A      3.971083   259A      3.990212  
     260A      4.011397   261A      4.034459   262A      4.064041  
     263A      4.077290   264A      4.082070   265A      4.097350  
     266A      4.121994   267A      4.147739   268A      4.165939  
     269A      4.170392   270A      4.184792   271A      4.201732  
     272A      4.209113   273A      4.248617   274A      4.262492  
     275A      4.280354   276A      4.291161   277A      4.295199  
     278A      4.315123   279A      4.331425   280A      4.345265  
     281A      4.365977   282A      4.392640   283A      4.400514  
     284A      4.414489   285A      4.432845   286A      4.446088  
     287A      4.464255   288A      4.481946   289A      4.493636  
     290A      4.509519   291A      4.535031   292A      4.542259  
     293A      4.556300   294A      4.577975   295A      4.596898  
     296A      4.608654   297A      4.629342   298A      4.638927  
     299A      4.662002   300A      4.684579   301A      4.703122  
     302A      4.721476   303A      4.735769   304A      4.767441  
     305A      4.778996   306A      4.783066   307A      4.787178  
     308A      4.805231   309A      4.814151   310A      4.823161  
     311A      4.838319   312A      4.849948   313A      4.856659  
     314A      4.881615   315A      4.914136   316A      4.920947  
     317A      4.945521   318A      4.955961   319A      4.966061  
     320A      4.994171   321A      5.028193   322A      5.044508  
     323A      5.053179   324A      5.077092   325A      5.087094  
     326A      5.113970   327A      5.147426   328A      5.153397  
     329A      5.175898   330A      5.197911   331A      5.299301  
     332A      5.302354   333A      5.326600   334A      5.385535  
     335A      5.393426   336A      5.439927   337A      5.475309  
     338A      5.509715   339A      5.522151   340A      5.551992  
     341A      5.558692   342A      5.566696   343A      5.604195  
     344A      5.640667   345A      5.643849   346A      5.667061  
     347A      5.680631   348A      5.684205   349A      5.733514  
     350A      5.812496   351A      5.833042   352A      5.880590  
     353A      5.888730   354A      5.890991   355A      5.907432  
     356A      5.990749   357A      6.035483   358A      6.055293  
     359A      6.101512   360A      6.127600   361A      6.148608  
     362A      6.244360   363A      6.262441   364A      6.276971  
     365A      6.347491   366A      6.385346   367A      6.408072  
     368A      6.415548   369A      6.436992   370A      6.488903  
     371A      6.613082   372A      6.709090   373A      6.719747  
     374A      6.730484   375A      6.793822   376A      6.846621  
     377A      6.967360   378A      7.004744   379A      7.077192  
     380A      7.090169   381A      7.212119   382A      7.261207  
     383A      7.276307   384A      7.325839   385A      7.374854  
     386A      7.390650   387A      7.400710   388A      7.430213  
     389A      7.460361   390A      7.572352   391A      7.594051  
     392A      7.638403   393A      7.659079   394A      7.739014  
     395A      7.823938   396A      7.837187   397A      7.915535  
     398A      7.952268   399A      7.972045   400A      8.117497  
     401A      8.138160   402A      8.280613   403A      8.732750  
     404A      9.395432   405A      9.944959   406A     10.183431  
     407A     12.128125   408A     13.861122   409A     14.365606  
     410A     14.688805   411A     41.311662   412A     46.006080  
     413A     47.103201  

    Final Occupation by Irrep:
              A 
    DOCC [    16 ]

  @DF-RHF Final Energy:  -227.90403277347934

   => Energetics <=

    Nuclear Repulsion Energy =            121.0866085497533362
    One-Electron Energy =                -551.5940877769619419
    Two-Electron Energy =                 202.6034464537292479
    Total Energy =                       -227.9040327734793436

Computation Completed


Properties will be evaluated at   0.000000,   0.000000,   0.000000 [a0]

Properties computed using the SCF density matrix

  Nuclear Dipole Moment: [e a0]
     X:   -96.2434      Y:    -2.8571      Z:    -0.2068

  Electronic Dipole Moment: [e a0]
     X:    95.9050      Y:     2.5279      Z:    -0.4556

  Dipole Moment: [e a0]
     X:    -0.3384      Y:    -0.3293      Z:    -0.6625     Total:     0.8135

  Dipole Moment: [D]
     X:    -0.8600      Y:    -0.8370      Z:    -1.6838     Total:     2.0677


*** tstop() called on r282 at Sat Sep 11 00:16:29 2021
Module time:
	user time   =      17.75 seconds =       0.30 minutes
	system time =       0.41 seconds =       0.01 minutes
	total time  =         18 seconds =       0.30 minutes
Total time:
	user time   =      48.97 seconds =       0.82 minutes
	system time =       1.29 seconds =       0.02 minutes
	total time  =         50 seconds =       0.83 minutes

  //>>>>>>>>>>>>>>>>>>>>>>>>>>>>>>>>>>>//
  //            Monomer B HF           //
  //<<<<<<<<<<<<<<<<<<<<<<<<<<<<<<<<<<<//


*** tstart() called on r282
*** at Sat Sep 11 00:16:29 2021

   => Loading Basis Set <=

    Name: JUN-CC-PVTZ
    Role: ORBITAL
    Keyword: BASIS
    atoms 1, 5, 9-11    entry C          line   217 file /home/r08543048/miniconda3/share/psi4/basis/jun-cc-pvtz.gbs 
    atoms 2-3           entry O          line   305 file /home/r08543048/miniconda3/share/psi4/basis/jun-cc-pvtz.gbs 
    atoms 4, 6-8, 12-17 entry H          line    36 file /home/r08543048/miniconda3/share/psi4/basis/jun-cc-pvtz.gbs 


         ---------------------------------------------------------
                                   SCF
               by Justin Turney, Rob Parrish, Andy Simmonett
                          and Daniel G. A. Smith
                              RHF Reference
                        1 Threads,  20980 MiB Core
         ---------------------------------------------------------

  ==> Geometry <==

    Molecular point group: c1
    Full point group: C1

    Geometry (in Angstrom), charge = 0, multiplicity = 1:

       Center              X                  Y                   Z               Mass       
    ------------   -----------------  -----------------  -----------------  -----------------
      Gh(C)          -1.503700122264     0.002223573425     0.112258165999    12.000000000000
      Gh(O)          -0.999403122264     0.492608573425     1.100814165999    15.994914619570
      Gh(O)          -0.812451122264    -0.742413426575    -0.777099834001    15.994914619570
      Gh(H)           0.112306877736    -0.788317426575    -0.460214834001     1.007825032230
      Gh(C)          -2.942770122264     0.132257573425    -0.287730834001    12.000000000000
      Gh(H)          -3.469958122264     0.737249573425     0.440932165999     1.007825032230
      Gh(H)          -3.006555122264     0.587582573425    -1.274143834001     1.007825032230
      Gh(H)          -3.391947122264    -0.856896426575    -0.352890834001     1.007825032230
         C            2.120499877736    -1.042715426575     0.595135165999    12.000000000000
         C            2.407724877736    -0.164204426575    -0.373883834001    12.000000000000
         C            2.069902877736     1.291506573425    -0.321292834001    12.000000000000
         H            2.401583877736    -2.083178426575     0.507270165999     1.007825032230
         H            1.605450877736    -0.728081426575     1.494314165999     1.007825032230
         H            2.924209877736    -0.519339426575    -1.260247834001     1.007825032230
         H            1.475484877736     1.583213573425    -1.188908834001     1.007825032230
         H            1.506224877736     1.529899573425     0.578716165999     1.007825032230
         H            2.979224877736     1.894048573425    -0.341907834001     1.007825032230

  Running in c1 symmetry.

  Rotational constants: A =      0.15647  B =      0.03824  C =      0.03676 [cm^-1]
  Rotational constants: A =   4690.70846  B =   1146.29679  C =   1102.14336 [MHz]
  Nuclear repulsion =   70.816054988243422

  Charge       = 0
  Multiplicity = 1
  Electrons    = 24
  Nalpha       = 12
  Nbeta        = 12

  ==> Algorithm <==

  SCF Algorithm Type is DF.
  DIIS enabled.
  MOM disabled.
  Fractional occupation disabled.
  Guess Type is SAD.
  Energy threshold   = 1.00e-08
  Density threshold  = 1.00e-08
  Integral threshold = 0.00e+00

  ==> Primary Basis <==

  Basis Set: JUN-CC-PVTZ
    Blend: JUN-CC-PVTZ
    Number of shells: 151
    Number of basis function: 413
    Number of Cartesian functions: 465
    Spherical Harmonics?: true
    Max angular momentum: 3

   => Loading Basis Set <=

    Name: (JUN-CC-PVTZ AUX)
    Role: JKFIT
    Keyword: DF_BASIS_SCF
    atoms 1, 5, 9-11    entry C          line   152 file /home/r08543048/miniconda3/share/psi4/basis/jun-cc-pvtz-jkfit.gbs 
    atoms 2-3           entry O          line   272 file /home/r08543048/miniconda3/share/psi4/basis/jun-cc-pvtz-jkfit.gbs 
    atoms 4, 6-8, 12-17 entry H          line    70 file /home/r08543048/miniconda3/share/psi4/basis/jun-cc-pvtz-jkfit.gbs 

  ==> Pre-Iterations <==

   -------------------------------------------------------
    Irrep   Nso     Nmo     Nalpha   Nbeta   Ndocc  Nsocc
   -------------------------------------------------------
     A        413     413       0       0       0       0
   -------------------------------------------------------
    Total     413     413      12      12      12       0
   -------------------------------------------------------

  ==> Integral Setup <==

  ==> DiskDFJK: Density-Fitted J/K Matrices <==

    J tasked:                  Yes
    K tasked:                  Yes
    wK tasked:                  No
    OpenMP threads:              1
    Integrals threads:           1
    Memory [MiB]:            15735
    Algorithm:                Core
    Integral Cache:           LOAD
    Schwarz Cutoff:          1E-12
    Fitting Condition:       1E-10

   => Auxiliary Basis Set <=

  Basis Set: (JUN-CC-PVTZ AUX)
    Blend: JUN-CC-PVTZ-JKFIT
    Number of shells: 303
    Number of basis function: 965
    Number of Cartesian functions: 1162
    Spherical Harmonics?: true
    Max angular momentum: 4

  Minimum eigenvalue in the overlap matrix is 3.9149339026E-05.
  Using Symmetric Orthogonalization.

  SCF Guess: Superposition of Atomic Densities via on-the-fly atomic UHF.

  ==> Iterations <==

                           Total Energy        Delta E     RMS |[F,P]|

   @DF-RHF iter SAD:  -116.32803801315465   -1.16328e+02   0.00000e+00 
   @DF-RHF iter   1:  -116.98811251750274   -6.60075e-01   1.10726e-03 DIIS
   @DF-RHF iter   2:  -117.09541571002104   -1.07303e-01   4.74677e-04 DIIS
   @DF-RHF iter   3:  -117.11535851929335   -1.99428e-02   8.55414e-05 DIIS
   @DF-RHF iter   4:  -117.11665118334878   -1.29266e-03   2.57653e-05 DIIS
   @DF-RHF iter   5:  -117.11672488988306   -7.37065e-05   6.95684e-06 DIIS
   @DF-RHF iter   6:  -117.11673113468844   -6.24481e-06   1.25033e-06 DIIS
   @DF-RHF iter   7:  -117.11673144394712   -3.09259e-07   4.58265e-07 DIIS
   @DF-RHF iter   8:  -117.11673148450015   -4.05530e-08   1.58439e-07 DIIS
   @DF-RHF iter   9:  -117.11673149029690   -5.79675e-09   5.79129e-08 DIIS
   @DF-RHF iter  10:  -117.11673149124272   -9.45818e-10   1.33561e-08 DIIS
   @DF-RHF iter  11:  -117.11673149128764   -4.49205e-11   2.36408e-09 DIIS
  Energy and wave function converged.


  ==> Post-Iterations <==

    Orbital Energies [Eh]
    ---------------------

    Doubly Occupied:                                                      

       1A    -11.234920     2A    -11.220921     3A    -11.217936  
       4A     -1.064261     5A     -0.932688     6A     -0.757863  
       7A     -0.639645     8A     -0.582441     9A     -0.568623  
      10A     -0.523448    11A     -0.493560    12A     -0.357093  

    Virtual:                                                              

      13A      0.034977    14A      0.054058    15A      0.054532  
      16A      0.058144    17A      0.073427    18A      0.076003  
      19A      0.077645    20A      0.091035    21A      0.100890  
      22A      0.106588    23A      0.109551    24A      0.113965  
      25A      0.132345    26A      0.136319    27A      0.138808  
      28A      0.150049    29A      0.155517    30A      0.173532  
      31A      0.178828    32A      0.183300    33A      0.184035  
      34A      0.196124    35A      0.199757    36A      0.214826  
      37A      0.221425    38A      0.223659    39A      0.236388  
      40A      0.242205    41A      0.260615    42A      0.273811  
      43A      0.281837    44A      0.293265    45A      0.300227  
      46A      0.307240    47A      0.318012    48A      0.326610  
      49A      0.337512    50A      0.338099    51A      0.349616  
      52A      0.352239    53A      0.360769    54A      0.375823  
      55A      0.376400    56A      0.379247    57A      0.388260  
      58A      0.390693    59A      0.398740    60A      0.412679  
      61A      0.415159    62A      0.426465    63A      0.429988  
      64A      0.442593    65A      0.448700    66A      0.460925  
      67A      0.474479    68A      0.480318    69A      0.489062  
      70A      0.500093    71A      0.504590    72A      0.515827  
      73A      0.518781    74A      0.532478    75A      0.542486  
      76A      0.547209    77A      0.554672    78A      0.556452  
      79A      0.563710    80A      0.594451    81A      0.603991  
      82A      0.623816    83A      0.645379    84A      0.667554  
      85A      0.679461    86A      0.707841    87A      0.712558  
      88A      0.732719    89A      0.750434    90A      0.761869  
      91A      0.768540    92A      0.772406    93A      0.782360  
      94A      0.792647    95A      0.797959    96A      0.806862  
      97A      0.813904    98A      0.826071    99A      0.841882  
     100A      0.853585   101A      0.871668   102A      0.879768  
     103A      0.894313   104A      0.906283   105A      0.913689  
     106A      0.920130   107A      0.952856   108A      0.967071  
     109A      0.972372   110A      0.980582   111A      0.987683  
     112A      0.997376   113A      1.028836   114A      1.031708  
     115A      1.039007   116A      1.059200   117A      1.064468  
     118A      1.081374   119A      1.085351   120A      1.093007  
     121A      1.097796   122A      1.103393   123A      1.111872  
     124A      1.121443   125A      1.138072   126A      1.144813  
     127A      1.171516   128A      1.179153   129A      1.196736  
     130A      1.213783   131A      1.215138   132A      1.250014  
     133A      1.256525   134A      1.272692   135A      1.291643  
     136A      1.298390   137A      1.328322   138A      1.337233  
     139A      1.341302   140A      1.355424   141A      1.370127  
     142A      1.396035   143A      1.400140   144A      1.415108  
     145A      1.440560   146A      1.448922   147A      1.456164  
     148A      1.464713   149A      1.489849   150A      1.500318  
     151A      1.530124   152A      1.538708   153A      1.556698  
     154A      1.567590   155A      1.568440   156A      1.596111  
     157A      1.609149   158A      1.616136   159A      1.629485  
     160A      1.657383   161A      1.659946   162A      1.674028  
     163A      1.679464   164A      1.701252   165A      1.713238  
     166A      1.748759   167A      1.784542   168A      1.785933  
     169A      1.803500   170A      1.821659   171A      1.854725  
     172A      1.866778   173A      1.901944   174A      1.912442  
     175A      1.922154   176A      1.936792   177A      1.970265  
     178A      1.976738   179A      2.033928   180A      2.040945  
     181A      2.066785   182A      2.098522   183A      2.129126  
     184A      2.146838   185A      2.222972   186A      2.342596  
     187A      2.404057   188A      2.414847   189A      2.527199  
     190A      2.544652   191A      2.609114   192A      2.663707  
     193A      2.713136   194A      2.723007   195A      2.737929  
     196A      2.742646   197A      2.771954   198A      2.778802  
     199A      2.798597   200A      2.838143   201A      2.855722  
     202A      2.859238   203A      2.887859   204A      2.892331  
     205A      2.935259   206A      2.959663   207A      2.981830  
     208A      2.988796   209A      3.012535   210A      3.034662  
     211A      3.045140   212A      3.051246   213A      3.063694  
     214A      3.101432   215A      3.101947   216A      3.145987  
     217A      3.153224   218A      3.182327   219A      3.185760  
     220A      3.221683   221A      3.228575   222A      3.261141  
     223A      3.279996   224A      3.300841   225A      3.312176  
     226A      3.340865   227A      3.360136   228A      3.381437  
     229A      3.388680   230A      3.417996   231A      3.425725  
     232A      3.440936   233A      3.459438   234A      3.494162  
     235A      3.500559   236A      3.516545   237A      3.533623  
     238A      3.557860   239A      3.588752   240A      3.593930  
     241A      3.597985   242A      3.619015   243A      3.621977  
     244A      3.634172   245A      3.679300   246A      3.683073  
     247A      3.695599   248A      3.705667   249A      3.742261  
     250A      3.760550   251A      3.781975   252A      3.787119  
     253A      3.798335   254A      3.803138   255A      3.845731  
     256A      3.856453   257A      3.862191   258A      3.885920  
     259A      3.923995   260A      3.937732   261A      3.952941  
     262A      3.959158   263A      3.995201   264A      4.009313  
     265A      4.019276   266A      4.051802   267A      4.085559  
     268A      4.093890   269A      4.110325   270A      4.151261  
     271A      4.170853   272A      4.172324   273A      4.216660  
     274A      4.233592   275A      4.267253   276A      4.285707  
     277A      4.297472   278A      4.321557   279A      4.328636  
     280A      4.336088   281A      4.356269   282A      4.380605  
     283A      4.383506   284A      4.406864   285A      4.415487  
     286A      4.416013   287A      4.427523   288A      4.447273  
     289A      4.455345   290A      4.484832   291A      4.499465  
     292A      4.535356   293A      4.537719   294A      4.549310  
     295A      4.582867   296A      4.604083   297A      4.619731  
     298A      4.641244   299A      4.651541   300A      4.684107  
     301A      4.701592   302A      4.711448   303A      4.753355  
     304A      4.758596   305A      4.772329   306A      4.786740  
     307A      4.804363   308A      4.817821   309A      4.839069  
     310A      4.850930   311A      4.856657   312A      4.881029  
     313A      4.890420   314A      4.901707   315A      4.920097  
     316A      4.924281   317A      4.938226   318A      4.953830  
     319A      5.016834   320A      5.034782   321A      5.064515  
     322A      5.074939   323A      5.083949   324A      5.107200  
     325A      5.171485   326A      5.199577   327A      5.208833  
     328A      5.214719   329A      5.251159   330A      5.303644  
     331A      5.319057   332A      5.330520   333A      5.340621  
     334A      5.363747   335A      5.412560   336A      5.441050  
     337A      5.458876   338A      5.527647   339A      5.572628  
     340A      5.601104   341A      5.633933   342A      5.685240  
     343A      5.696463   344A      5.702829   345A      5.707729  
     346A      5.768775   347A      5.788139   348A      5.855763  
     349A      5.982394   350A      5.987681   351A      6.044278  
     352A      6.071532   353A      6.098548   354A      6.149939  
     355A      6.161619   356A      6.266674   357A      6.324050  
     358A      6.354892   359A      6.422452   360A      6.437929  
     361A      6.456769   362A      6.467138   363A      6.490015  
     364A      6.518072   365A      6.536653   366A      6.638730  
     367A      6.698872   368A      6.742582   369A      6.819811  
     370A      7.042468   371A      7.146766   372A      7.177868  
     373A      7.255254   374A      7.500260   375A      7.507717  
     376A      7.540841   377A      7.692556   378A      7.817850  
     379A      7.821431   380A      7.864147   381A      7.928442  
     382A      8.046558   383A      8.121108   384A      8.318684  
     385A      8.621168   386A      8.826323   387A      9.141844  
     388A      9.450928   389A      9.686603   390A      9.801908  
     391A      9.875857   392A      9.896251   393A      9.918886  
     394A      9.927511   395A      9.971435   396A     10.056245  
     397A     10.345001   398A     10.446242   399A     11.070888  
     400A     11.373572   401A     11.570880   402A     11.633946  
     403A     11.971595   404A     12.420989   405A     13.065986  
     406A     13.723584   407A     13.932067   408A     14.754499  
     409A     15.304846   410A     42.675811   411A     45.990054  
     412A     61.102153   413A     61.608724  

    Final Occupation by Irrep:
              A 
    DOCC [    12 ]

  @DF-RHF Final Energy:  -117.11673149128764

   => Energetics <=

    Nuclear Repulsion Energy =             70.8160549882434225
    One-Electron Energy =                -296.6787748000461988
    Two-Electron Energy =                 108.7459883205151385
    Total Energy =                       -117.1167314912876378

Computation Completed


Properties will be evaluated at   0.000000,   0.000000,   0.000000 [a0]

Properties computed using the SCF density matrix

  Nuclear Dipole Moment: [e a0]
     X:    99.1746      Y:     4.1273      Z:    -1.5326

  Electronic Dipole Moment: [e a0]
     X:   -99.1607      Y:    -3.9781      Z:     1.4518

  Dipole Moment: [e a0]
     X:     0.0139      Y:     0.1492      Z:    -0.0808     Total:     0.1703

  Dipole Moment: [D]
     X:     0.0354      Y:     0.3793      Z:    -0.2054     Total:     0.4328


*** tstop() called on r282 at Sat Sep 11 00:16:45 2021
Module time:
	user time   =      15.84 seconds =       0.26 minutes
	system time =       0.38 seconds =       0.01 minutes
	total time  =         16 seconds =       0.27 minutes
Total time:
	user time   =      64.81 seconds =       1.08 minutes
	system time =       1.67 seconds =       0.03 minutes
	total time  =         66 seconds =       1.10 minutes
  Constructing Basis Sets for SAPT...

   => Loading Basis Set <=

    Name: (JUN-CC-PVTZ AUX)
    Role: RIFIT
    Keyword: DF_BASIS_SAPT
    atoms 1, 5, 9-11    entry C          line   132 file /home/r08543048/miniconda3/share/psi4/basis/jun-cc-pvtz-ri.gbs 
    atoms 2-3           entry O          line   244 file /home/r08543048/miniconda3/share/psi4/basis/jun-cc-pvtz-ri.gbs 
    atoms 4, 6-8, 12-17 entry H          line    30 file /home/r08543048/miniconda3/share/psi4/basis/jun-cc-pvtz-ri.gbs 


  //>>>>>>>>>>>>>>>>>>>>>>>>>>>>>>>>>>>//
  //               SAPT0               //
  //<<<<<<<<<<<<<<<<<<<<<<<<<<<<<<<<<<<//


*** tstart() called on r282
*** at Sat Sep 11 00:16:45 2021

        SAPT0  
    Ed Hohenstein
     6 June 2009

      Orbital Information
  --------------------------
    NSO        =       413
    NMO        =       413
    NRI        =       979
    NOCC A     =        16
    NOCC B     =        12
    FOCC A     =         0
    FOCC B     =         0
    NVIR A     =       397
    NVIR B     =       401

    Elst10,r            =    -0.012041490099 [Eh]
    Exch10              =     0.015279721704 [Eh]
    Exch10 (S^2)        =     0.015144683185 [Eh]

    Iter     Energy [mEh]          dE [mEh]         Residual      Time [s]
       1      -0.93790426       0.937904259       4.369859820             1
       2      -1.12361403       0.185709770       1.637103780             1
       3      -1.13642973       0.012815700       0.562403683             2
       4      -1.13230438      -0.004125347       0.248094339             2
       5      -1.13082248      -0.001481903       0.082515726             3
       6      -1.13121116       0.000388681       0.036525633             4
       7      -1.13146205       0.000250887       0.009815775             4
       8      -1.13140672      -0.000055325       0.003237189             5
       9      -1.13138941      -0.000017308       0.000728419             5
      10      -1.13139413       0.000004713       0.000191123             6
      11      -1.13139423       0.000000101       0.000047675             6
      12      -1.13139401      -0.000000222       0.000012089             7
      13      -1.13139401       0.000000002       0.000003784             7
      14      -1.13139402       0.000000015       0.000001531             8
      15      -1.13139402      -0.000000002       0.000000614             8

    CHF Iterations converged


    Iter     Energy [mEh]          dE [mEh]         Residual      Time [s]
       1      -6.23318510       6.233185104      14.235197879             1
       2      -7.85541629       1.622231183       5.355919441             1
       3      -8.06562214       0.210205849       1.106866242             2
       4      -8.02092009      -0.044702047       0.366032465             2
       5      -8.01479891      -0.006121179       0.086354498             3
       6      -8.01732782       0.002528906       0.042878503             3
       7      -8.01758278       0.000254961       0.013971480             4
       8      -8.01727158      -0.000311193       0.003501840             4
       9      -8.01728103       0.000009442       0.000777026             5
      10      -8.01729024       0.000009217       0.000242874             5
      11      -8.01729008      -0.000000163       0.000060323             6
      12      -8.01728923      -0.000000852       0.000013718             6
      13      -8.01728934       0.000000109       0.000003591             7
      14      -8.01728936       0.000000025       0.000001002             7
      15      -8.01728935      -0.000000013       0.000000239             8

    CHF Iterations converged

    Ind20,r (A<-B)      =    -0.001131394020 [Eh]
    Ind20,r (B<-A)      =    -0.008017289348 [Eh]
    Ind20,r             =    -0.009148683369 [Eh]
    Exch-Ind20,r (A<-B) =     0.000930988336 [Eh]
    Exch-Ind20,r (B<-A) =     0.005201011751 [Eh]
    Exch-Ind20,r        =     0.006132000087 [Eh]
    Disp20              =    -0.009211909657 [Eh]
    Disp20 (SS)         =    -0.004605954829 [Eh]
    Disp20 (OS)         =    -0.004605954829 [Eh]
    Exch-Disp20         =     0.001370545008 [Eh]
    Exch-Disp20 (SS)    =     0.000890402612 [Eh]
    Exch-Disp20 (OS)    =     0.000480142395 [Eh]

    SAPT Results 
  --------------------------------------------------------------------------------------------------------
    Electrostatics                -12.04149010 [mEh]      -7.55614912 [kcal/mol]     -31.61492790 [kJ/mol]
      Elst10,r                    -12.04149010 [mEh]      -7.55614912 [kcal/mol]     -31.61492790 [kJ/mol]

    Exchange                       15.27972170 [mEh]       9.58817013 [kcal/mol]      40.11690381 [kJ/mol]
      Exch10                       15.27972170 [mEh]       9.58817013 [kcal/mol]      40.11690381 [kJ/mol]
      Exch10(S^2)                  15.14468319 [mEh]       9.50343218 [kcal/mol]      39.76236023 [kJ/mol]

    Induction                      -5.26634507 [mEh]      -3.30468143 [kcal/mol]     -13.82678708 [kJ/mol]
      Ind20,r                      -9.14868337 [mEh]      -5.74088549 [kcal/mol]     -24.01986487 [kJ/mol]
      Exch-Ind20,r                  6.13200009 [mEh]       3.84788815 [kcal/mol]      16.09956401 [kJ/mol]
      delta HF,r (2)               -2.24966179 [mEh]      -1.41168409 [kcal/mol]      -5.90648622 [kJ/mol]

    Dispersion                     -7.84136465 [mEh]      -4.92053060 [kcal/mol]     -20.58750005 [kJ/mol]
      Disp20                       -9.21190966 [mEh]      -5.78056058 [kcal/mol]     -24.18586547 [kJ/mol]
      Exch-Disp20                   1.37054501 [mEh]       0.86002998 [kcal/mol]       3.59836542 [kJ/mol]
      Disp20 (SS)                  -4.60595483 [mEh]      -2.89028029 [kcal/mol]     -12.09293274 [kJ/mol]
      Disp20 (OS)                  -4.60595483 [mEh]      -2.89028029 [kcal/mol]     -12.09293274 [kJ/mol]
      Exch-Disp20 (SS)              0.89040261 [mEh]       0.55873607 [kcal/mol]       2.33775174 [kJ/mol]
      Exch-Disp20 (OS)              0.48014240 [mEh]       0.30129390 [kcal/mol]       1.26061368 [kJ/mol]

  Total HF                         -2.02811347 [mEh]      -1.27266041 [kcal/mol]      -5.32481117 [kJ/mol]
  Total SAPT0                      -9.86947812 [mEh]      -6.19319102 [kcal/mol]     -25.91231123 [kJ/mol]

  Special recipe for scaled SAPT0 (see Manual):
    Electrostatics sSAPT0         -12.04149010 [mEh]      -7.55614912 [kcal/mol]     -31.61492790 [kJ/mol]
    Exchange sSAPT0                15.27972170 [mEh]       9.58817013 [kcal/mol]      40.11690381 [kJ/mol]
    Induction sSAPT0               -5.10084906 [mEh]      -3.20083111 [kcal/mol]     -13.39227736 [kJ/mol]
    Dispersion sSAPT0              -7.80437513 [mEh]      -4.89731933 [kcal/mol]     -20.49038408 [kJ/mol]
  Total sSAPT0                     -9.66699258 [mEh]      -6.06612943 [kcal/mol]     -25.38068553 [kJ/mol]
  --------------------------------------------------------------------------------------------------------

*** tstop() called on r282 at Sat Sep 11 00:17:47 2021
Module time:
	user time   =      51.22 seconds =       0.85 minutes
	system time =      10.35 seconds =       0.17 minutes
	total time  =         62 seconds =       1.03 minutes
Total time:
	user time   =     116.15 seconds =       1.94 minutes
	system time =      12.02 seconds =       0.20 minutes
	total time  =        128 seconds =       2.13 minutes

    Psi4 stopped on: Saturday, 11 September 2021 12:17AM
    Psi4 wall time for execution: 0:02:08.57

*** Psi4 exiting successfully. Buy a developer a beer!
