
    -----------------------------------------------------------------------
          Psi4: An Open-Source Ab Initio Electronic Structure Package
                               Psi4 1.3.2 release

                         Git: Rev {HEAD} ecbda83 


    R. M. Parrish, L. A. Burns, D. G. A. Smith, A. C. Simmonett,
    A. E. DePrince III, E. G. Hohenstein, U. Bozkaya, A. Yu. Sokolov,
    R. Di Remigio, R. M. Richard, J. F. Gonthier, A. M. James,
    H. R. McAlexander, A. Kumar, M. Saitow, X. Wang, B. P. Pritchard,
    P. Verma, H. F. Schaefer III, K. Patkowski, R. A. King, E. F. Valeev,
    F. A. Evangelista, J. M. Turney, T. D. Crawford, and C. D. Sherrill,
    J. Chem. Theory Comput. 13(7) pp 3185--3197 (2017).
    (doi: 10.1021/acs.jctc.7b00174)


                         Additional Contributions by
    P. Kraus, H. Kruse, M. H. Lechner, M. C. Schieber, R. A. Shaw,
    A. Alenaizan, R. Galvelis, Z. L. Glick, S. Lehtola, and J. P. Misiewicz

    -----------------------------------------------------------------------


    Psi4 started on: Friday, 10 September 2021 10:51PM

    Process ID: 57288
    Host:       r282
    PSIDATADIR: /home/r08543048/miniconda3/share/psi4
    Memory:     500.0 MiB
    Threads:    1
    
  ==> Input File <==

--------------------------------------------------------------------------
# Any line starting with the # character is a comment line
#! Sample  computation

memory 22 gb

molecule Dimer {
0 1
 C -1.787913   -0.744079    0.789250
 C -2.663839    0.330127    0.165935
 H -0.905725   -0.268961    1.228020
 H -2.339087   -1.198845    1.616595
 O -2.003462    1.042884   -0.879246
 H -3.536258   -0.124615   -0.304148
 H -3.021045    1.022275    0.934317
 H -1.270938    1.527098   -0.482312
 C -1.365540   -1.809424   -0.213476
 H -0.696368   -2.539511    0.240986
 H -2.237240   -2.342690   -0.595210
 H -0.855041   -1.357491   -1.062318



    
    
    
 --
0 1
 C  1.186082    2.066621    0.372432
 H  2.023706    2.520485    0.903399
 H  0.440654    1.794777    1.123545
 H  0.756447    2.831326   -0.276677
 C  1.640856    0.843712   -0.415686
 H  0.801981    0.429565   -0.981522
 H  2.390470    1.142917   -1.153058
 C  2.225352   -0.243386    0.477287
 H  1.474843   -0.546225    1.213136
 H  3.063841    0.170243    1.044500
 C  2.686332   -1.459516   -0.316113
 H  3.456021   -1.180964   -1.036994
 H  3.099136   -2.230686    0.333745
 H  1.854318   -1.896100   -0.869811





units angstrom

no_reorient
symmetry c1
}

set globals{
  basis jun-cc-pvtz
}

energy('sapt0')


--------------------------------------------------------------------------

  Memory set to  20.489 GiB by Python driver.

  //>>>>>>>>>>>>>>>>>>>>>>>>>>>>>>>>>>>//
  //              Dimer HF             //
  //<<<<<<<<<<<<<<<<<<<<<<<<<<<<<<<<<<<//


*** tstart() called on r282
*** at Fri Sep 10 22:51:27 2021

   => Loading Basis Set <=

    Name: JUN-CC-PVTZ
    Role: ORBITAL
    Keyword: BASIS
    atoms 1-2, 9, 13, 17, 20, 23                      entry C          line   217 file /home/r08543048/miniconda3/share/psi4/basis/jun-cc-pvtz.gbs 
    atoms 3-4, 6-8, 10-12, 14-16, 18-19, 21-22, 24-26 entry H          line    36 file /home/r08543048/miniconda3/share/psi4/basis/jun-cc-pvtz.gbs 
    atoms 5                                           entry O          line   305 file /home/r08543048/miniconda3/share/psi4/basis/jun-cc-pvtz.gbs 


         ---------------------------------------------------------
                                   SCF
               by Justin Turney, Rob Parrish, Andy Simmonett
                          and Daniel G. A. Smith
                              RHF Reference
                        1 Threads,  20980 MiB Core
         ---------------------------------------------------------

  ==> Geometry <==

    Molecular point group: c1
    Full point group: C1

    Geometry (in Angstrom), charge = 0, multiplicity = 1:

       Center              X                  Y                   Z               Mass       
    ------------   -----------------  -----------------  -----------------  -----------------
         C           -1.750207922193    -0.762909136168     0.804969561521    12.000000000000
         C           -2.626133922193     0.311296863832     0.181654561521    12.000000000000
         H           -0.868019922193    -0.287791136168     1.243739561521     1.007825032230
         H           -2.301381922193    -1.217675136168     1.632314561521     1.007825032230
         O           -1.965756922193     1.024053863832    -0.863526438479    15.994914619570
         H           -3.498552922193    -0.143445136168    -0.288428438479     1.007825032230
         H           -2.983339922193     1.003444863832     0.950036561521     1.007825032230
         H           -1.233232922193     1.508267863832    -0.466592438479     1.007825032230
         C           -1.327834922193    -1.828254136168    -0.197756438479    12.000000000000
         H           -0.658662922193    -2.558341136168     0.256705561521     1.007825032230
         H           -2.199534922193    -2.361520136168    -0.579490438479     1.007825032230
         H           -0.817335922193    -1.376321136168    -1.046598438479     1.007825032230
         C            1.223787077807     2.047790863832     0.388151561521    12.000000000000
         H            2.061411077807     2.501654863832     0.919118561521     1.007825032230
         H            0.478359077807     1.775946863832     1.139264561521     1.007825032230
         H            0.794152077807     2.812495863832    -0.260957438479     1.007825032230
         C            1.678561077807     0.824881863832    -0.399966438479    12.000000000000
         H            0.839686077807     0.410734863832    -0.965802438479     1.007825032230
         H            2.428175077807     1.124086863832    -1.137338438479     1.007825032230
         C            2.263057077807    -0.262216136168     0.493006561521    12.000000000000
         H            1.512548077807    -0.565055136168     1.228855561521     1.007825032230
         H            3.101546077807     0.151412863832     1.060219561521     1.007825032230
         C            2.724037077807    -1.478346136168    -0.300393438479    12.000000000000
         H            3.493726077807    -1.199794136168    -1.021274438479     1.007825032230
         H            3.136841077807    -2.249516136168     0.349464561521     1.007825032230
         H            1.892023077807    -1.914930136168    -0.854091438479     1.007825032230

  Running in c1 symmetry.

  Rotational constants: A =      0.06928  B =      0.03159  C =      0.02448 [cm^-1]
  Rotational constants: A =   2077.03283  B =    947.17879  C =    733.99105 [MHz]
  Nuclear repulsion =  405.427313232846586

  Charge       = 0
  Multiplicity = 1
  Electrons    = 68
  Nalpha       = 34
  Nbeta        = 34

  ==> Algorithm <==

  SCF Algorithm Type is DF.
  DIIS enabled.
  MOM disabled.
  Fractional occupation disabled.
  Guess Type is SAD.
  Energy threshold   = 1.00e-08
  Density threshold  = 1.00e-08
  Integral threshold = 0.00e+00

  ==> Primary Basis <==

  Basis Set: JUN-CC-PVTZ
    Blend: JUN-CC-PVTZ
    Number of shells: 212
    Number of basis function: 564
    Number of Cartesian functions: 630
    Spherical Harmonics?: true
    Max angular momentum: 3

   => Loading Basis Set <=

    Name: (JUN-CC-PVTZ AUX)
    Role: JKFIT
    Keyword: DF_BASIS_SCF
    atoms 1-2, 9, 13, 17, 20, 23                      entry C          line   152 file /home/r08543048/miniconda3/share/psi4/basis/jun-cc-pvtz-jkfit.gbs 
    atoms 3-4, 6-8, 10-12, 14-16, 18-19, 21-22, 24-26 entry H          line    70 file /home/r08543048/miniconda3/share/psi4/basis/jun-cc-pvtz-jkfit.gbs 
    atoms 5                                           entry O          line   272 file /home/r08543048/miniconda3/share/psi4/basis/jun-cc-pvtz-jkfit.gbs 

  ==> Pre-Iterations <==

   -------------------------------------------------------
    Irrep   Nso     Nmo     Nalpha   Nbeta   Ndocc  Nsocc
   -------------------------------------------------------
     A        564     564       0       0       0       0
   -------------------------------------------------------
    Total     564     564      34      34      34       0
   -------------------------------------------------------

  ==> Integral Setup <==

  ==> DiskDFJK: Density-Fitted J/K Matrices <==

    J tasked:                  Yes
    K tasked:                  Yes
    wK tasked:                  No
    OpenMP threads:              1
    Integrals threads:           1
    Memory [MiB]:            15735
    Algorithm:                Core
    Integral Cache:           SAVE
    Schwarz Cutoff:          1E-12
    Fitting Condition:       1E-10

   => Auxiliary Basis Set <=

  Basis Set: (JUN-CC-PVTZ AUX)
    Blend: JUN-CC-PVTZ-JKFIT
    Number of shells: 412
    Number of basis function: 1300
    Number of Cartesian functions: 1558
    Spherical Harmonics?: true
    Max angular momentum: 4

  Minimum eigenvalue in the overlap matrix is 4.4646761946E-05.
  Using Symmetric Orthogonalization.

  SCF Guess: Superposition of Atomic Densities via on-the-fly atomic UHF.

  ==> Iterations <==

                           Total Energy        Delta E     RMS |[F,P]|

   @DF-RHF iter SAD:  -349.48199763089110   -3.49482e+02   0.00000e+00 
   @DF-RHF iter   1:  -350.16408268861051   -6.82085e-01   1.42257e-03 DIIS
   @DF-RHF iter   2:  -350.46796955596005   -3.03887e-01   7.00708e-04 DIIS
   @DF-RHF iter   3:  -350.53954395260178   -7.15744e-02   1.27975e-04 DIIS
   @DF-RHF iter   4:  -350.54408217539537   -4.53822e-03   4.37663e-05 DIIS
   @DF-RHF iter   5:  -350.54441660249290   -3.34427e-04   1.03474e-05 DIIS
   @DF-RHF iter   6:  -350.54444211876495   -2.55163e-05   2.52972e-06 DIIS
   @DF-RHF iter   7:  -350.54444387218399   -1.75342e-06   6.59573e-07 DIIS
   @DF-RHF iter   8:  -350.54444400456003   -1.32376e-07   1.76949e-07 DIIS
   @DF-RHF iter   9:  -350.54444401666109   -1.21011e-08   4.76054e-08 DIIS
   @DF-RHF iter  10:  -350.54444401758599   -9.24899e-10   1.32033e-08 DIIS
   @DF-RHF iter  11:  -350.54444401763544   -4.94538e-11   3.18880e-09 DIIS
  Energy and wave function converged.


  ==> Post-Iterations <==

    Orbital Energies [Eh]
    ---------------------

    Doubly Occupied:                                                      

       1A    -20.552047     2A    -11.270234     3A    -11.221172  
       4A    -11.218812     5A    -11.217943     6A    -11.217178  
       7A    -11.209507     8A    -11.209219     9A     -1.353515  
      10A     -1.077282    11A     -1.050832    12A     -0.986968  
      13A     -0.919485    14A     -0.866744    15A     -0.811006  
      16A     -0.793057    17A     -0.676425    18A     -0.649536  
      19A     -0.632739    20A     -0.624902    21A     -0.591081  
      22A     -0.581577    23A     -0.573289    24A     -0.563124  
      25A     -0.530736    26A     -0.521177    27A     -0.520572  
      28A     -0.500497    29A     -0.487015    30A     -0.476041  
      31A     -0.469156    32A     -0.463566    33A     -0.461656  
      34A     -0.435506  

    Virtual:                                                              

      35A      0.046611    36A      0.049791    37A      0.056457  
      38A      0.058030    39A      0.068529    40A      0.073806  
      41A      0.076079    42A      0.086480    43A      0.088808  
      44A      0.101746    45A      0.105859    46A      0.112206  
      47A      0.116556    48A      0.117617    49A      0.121879  
      50A      0.131118    51A      0.139359    52A      0.141631  
      53A      0.153529    54A      0.156653    55A      0.164376  
      56A      0.175797    57A      0.180795    58A      0.185994  
      59A      0.191852    60A      0.208069    61A      0.209350  
      62A      0.214273    63A      0.229161    64A      0.232544  
      65A      0.246061    66A      0.251866    67A      0.257172  
      68A      0.270542    69A      0.279064    70A      0.280441  
      71A      0.291743    72A      0.292506    73A      0.298979  
      74A      0.303666    75A      0.305473    76A      0.313673  
      77A      0.317161    78A      0.320255    79A      0.325912  
      80A      0.331446    81A      0.337010    82A      0.343055  
      83A      0.346055    84A      0.347494    85A      0.352443  
      86A      0.364004    87A      0.365188    88A      0.375328  
      89A      0.380275    90A      0.384248    91A      0.390016  
      92A      0.397861    93A      0.398022    94A      0.401103  
      95A      0.415046    96A      0.421323    97A      0.424639  
      98A      0.438972    99A      0.443501   100A      0.447288  
     101A      0.462210   102A      0.471849   103A      0.473346  
     104A      0.480943   105A      0.482389   106A      0.507312  
     107A      0.511330   108A      0.513814   109A      0.520946  
     110A      0.530210   111A      0.532776   112A      0.537039  
     113A      0.544659   114A      0.553462   115A      0.556404  
     116A      0.562347   117A      0.572133   118A      0.577328  
     119A      0.583036   120A      0.585431   121A      0.603038  
     122A      0.606053   123A      0.612297   124A      0.615139  
     125A      0.625822   126A      0.642883   127A      0.654066  
     128A      0.670481   129A      0.682168   130A      0.686270  
     131A      0.694789   132A      0.708064   133A      0.720922  
     134A      0.729482   135A      0.738983   136A      0.745624  
     137A      0.755157   138A      0.764365   139A      0.773029  
     140A      0.779998   141A      0.788211   142A      0.792491  
     143A      0.803225   144A      0.805648   145A      0.811274  
     146A      0.819821   147A      0.825572   148A      0.834457  
     149A      0.841438   150A      0.844859   151A      0.852034  
     152A      0.857188   153A      0.860332   154A      0.868086  
     155A      0.874336   156A      0.887962   157A      0.889942  
     158A      0.894905   159A      0.898966   160A      0.915244  
     161A      0.933158   162A      0.935962   163A      0.942402  
     164A      0.944537   165A      0.963265   166A      0.972435  
     167A      0.996044   168A      1.002593   169A      1.013386  
     170A      1.018198   171A      1.035001   172A      1.040881  
     173A      1.049379   174A      1.052226   175A      1.069914  
     176A      1.098763   177A      1.109151   178A      1.117393  
     179A      1.122346   180A      1.146507   181A      1.158181  
     182A      1.176387   183A      1.185556   184A      1.200362  
     185A      1.207770   186A      1.223519   187A      1.229855  
     188A      1.237386   189A      1.250028   190A      1.263184  
     191A      1.269864   192A      1.284049   193A      1.297615  
     194A      1.312239   195A      1.318759   196A      1.339218  
     197A      1.341339   198A      1.353404   199A      1.359004  
     200A      1.363117   201A      1.382005   202A      1.383506  
     203A      1.397717   204A      1.406913   205A      1.419239  
     206A      1.433499   207A      1.438575   208A      1.441133  
     209A      1.454531   210A      1.459363   211A      1.466897  
     212A      1.474283   213A      1.482089   214A      1.484255  
     215A      1.499386   216A      1.511075   217A      1.518535  
     218A      1.528186   219A      1.538118   220A      1.542673  
     221A      1.550848   222A      1.564391   223A      1.572244  
     224A      1.574989   225A      1.580443   226A      1.599368  
     227A      1.608451   228A      1.614694   229A      1.621470  
     230A      1.624635   231A      1.632463   232A      1.635301  
     233A      1.644213   234A      1.655052   235A      1.662403  
     236A      1.683535   237A      1.689104   238A      1.698139  
     239A      1.710115   240A      1.719861   241A      1.724471  
     242A      1.745222   243A      1.761317   244A      1.770031  
     245A      1.776784   246A      1.783199   247A      1.806391  
     248A      1.827930   249A      1.847194   250A      1.858944  
     251A      1.870981   252A      1.884450   253A      1.884811  
     254A      1.897220   255A      1.917183   256A      1.928353  
     257A      1.934247   258A      1.940325   259A      1.963903  
     260A      1.967571   261A      1.994722   262A      1.999809  
     263A      2.013126   264A      2.045714   265A      2.067020  
     266A      2.083423   267A      2.119890   268A      2.168477  
     269A      2.245984   270A      2.404936   271A      2.439792  
     272A      2.460469   273A      2.538673   274A      2.605921  
     275A      2.740832   276A      2.749109   277A      2.768580  
     278A      2.806976   279A      2.813448   280A      2.830253  
     281A      2.834603   282A      2.854570   283A      2.865622  
     284A      2.876305   285A      2.881326   286A      2.888912  
     287A      2.912455   288A      2.915704   289A      2.931875  
     290A      2.938296   291A      2.954611   292A      2.968199  
     293A      2.973087   294A      2.986541   295A      3.015440  
     296A      3.016289   297A      3.029759   298A      3.046748  
     299A      3.082951   300A      3.089444   301A      3.108353  
     302A      3.122303   303A      3.128909   304A      3.133957  
     305A      3.141644   306A      3.148243   307A      3.151110  
     308A      3.164887   309A      3.182056   310A      3.185069  
     311A      3.200125   312A      3.228148   313A      3.245188  
     314A      3.254713   315A      3.259032   316A      3.279050  
     317A      3.288589   318A      3.298184   319A      3.308945  
     320A      3.312289   321A      3.324818   322A      3.329146  
     323A      3.345894   324A      3.360150   325A      3.365979  
     326A      3.374523   327A      3.394483   328A      3.398219  
     329A      3.401538   330A      3.403907   331A      3.409389  
     332A      3.414884   333A      3.428973   334A      3.436970  
     335A      3.454202   336A      3.465270   337A      3.468230  
     338A      3.471302   339A      3.472271   340A      3.486038  
     341A      3.499195   342A      3.502758   343A      3.511354  
     344A      3.513501   345A      3.527918   346A      3.528916  
     347A      3.540361   348A      3.554972   349A      3.563336  
     350A      3.567537   351A      3.581387   352A      3.590632  
     353A      3.592488   354A      3.606807   355A      3.618661  
     356A      3.632523   357A      3.638532   358A      3.655006  
     359A      3.664097   360A      3.668824   361A      3.677721  
     362A      3.695417   363A      3.707679   364A      3.719034  
     365A      3.728367   366A      3.736586   367A      3.749401  
     368A      3.765754   369A      3.782844   370A      3.789186  
     371A      3.807616   372A      3.820524   373A      3.825314  
     374A      3.836972   375A      3.842893   376A      3.857524  
     377A      3.876473   378A      3.887427   379A      3.898204  
     380A      3.913707   381A      3.928091   382A      3.931870  
     383A      3.951510   384A      3.955877   385A      3.957887  
     386A      3.966276   387A      3.974602   388A      3.980971  
     389A      3.989633   390A      3.995348   391A      4.016426  
     392A      4.043504   393A      4.060170   394A      4.083508  
     395A      4.098010   396A      4.119945   397A      4.137698  
     398A      4.152982   399A      4.164686   400A      4.173457  
     401A      4.182038   402A      4.197216   403A      4.218853  
     404A      4.233025   405A      4.244533   406A      4.249398  
     407A      4.256195   408A      4.271722   409A      4.284862  
     410A      4.292140   411A      4.299536   412A      4.312223  
     413A      4.320488   414A      4.332624   415A      4.342678  
     416A      4.347578   417A      4.358002   418A      4.367564  
     419A      4.377421   420A      4.386113   421A      4.388559  
     422A      4.396484   423A      4.406196   424A      4.424703  
     425A      4.432079   426A      4.439482   427A      4.451031  
     428A      4.473916   429A      4.483937   430A      4.487811  
     431A      4.492265   432A      4.498574   433A      4.513468  
     434A      4.515701   435A      4.522140   436A      4.533298  
     437A      4.542016   438A      4.545853   439A      4.557950  
     440A      4.565369   441A      4.575979   442A      4.583845  
     443A      4.589519   444A      4.609307   445A      4.625463  
     446A      4.639635   447A      4.648790   448A      4.659573  
     449A      4.666554   450A      4.688272   451A      4.696441  
     452A      4.705568   453A      4.728955   454A      4.734723  
     455A      4.740839   456A      4.768382   457A      4.776289  
     458A      4.799564   459A      4.814120   460A      4.828706  
     461A      4.841468   462A      4.856170   463A      4.869630  
     464A      4.885714   465A      4.899867   466A      4.913928  
     467A      4.936871   468A      4.960960   469A      5.013294  
     470A      5.028715   471A      5.046899   472A      5.064822  
     473A      5.077332   474A      5.113773   475A      5.119873  
     476A      5.127233   477A      5.148973   478A      5.162923  
     479A      5.164451   480A      5.194654   481A      5.222991  
     482A      5.250625   483A      5.252858   484A      5.265164  
     485A      5.270676   486A      5.278886   487A      5.294146  
     488A      5.306734   489A      5.308395   490A      5.331179  
     491A      5.341085   492A      5.356755   493A      5.360989  
     494A      5.375772   495A      5.389774   496A      5.412706  
     497A      5.427546   498A      5.451240   499A      5.467120  
     500A      5.482687   501A      5.499225   502A      5.525606  
     503A      5.534833   504A      5.557416   505A      5.589521  
     506A      5.605136   507A      5.622092   508A      5.649211  
     509A      5.660175   510A      5.671585   511A      5.746577  
     512A      5.754039   513A      5.761096   514A      5.775132  
     515A      5.778490   516A      5.794217   517A      5.798067  
     518A      5.809459   519A      5.839852   520A      5.844338  
     521A      5.855643   522A      5.888888   523A      5.903102  
     524A      5.908367   525A      5.931999   526A      5.944589  
     527A      5.953247   528A      5.967152   529A      5.979734  
     530A      6.002742   531A      6.015976   532A      6.078336  
     533A      6.097502   534A      6.132469   535A      6.189786  
     536A      6.298985   537A      6.448481   538A      6.489192  
     539A      6.489807   540A      6.517600   541A      6.537306  
     542A      6.540830   543A      6.553928   544A      6.558404  
     545A      6.585060   546A      6.624534   547A      6.667303  
     548A      6.940013   549A      7.081800   550A      7.244291  
     551A      7.342594   552A      7.396359   553A      7.528400  
     554A      7.648288   555A      7.874578   556A      8.159918  
     557A     13.696739   558A     13.748101   559A     13.902397  
     560A     14.155256   561A     14.290383   562A     14.564009  
     563A     14.769837   564A     14.815728  

    Final Occupation by Irrep:
              A 
    DOCC [    34 ]

  @DF-RHF Final Energy:  -350.54444401763544

   => Energetics <=

    Nuclear Repulsion Energy =            405.4273132328465863
    One-Electron Energy =               -1278.4763208277940976
    Two-Electron Energy =                 522.5045635773120694
    Total Energy =                       -350.5444440176354419

Computation Completed


Properties will be evaluated at   0.000000,   0.000000,   0.000000 [a0]

Properties computed using the SCF density matrix

  Nuclear Dipole Moment: [e a0]
     X:     4.8452      Y:    -2.4197      Z:     2.0200

  Electronic Dipole Moment: [e a0]
     X:    -4.5781      Y:     2.3515      Z:    -1.3649

  Dipole Moment: [e a0]
     X:     0.2671      Y:    -0.0682      Z:     0.6551     Total:     0.7107

  Dipole Moment: [D]
     X:     0.6788      Y:    -0.1733      Z:     1.6651     Total:     1.8065


*** tstop() called on r282 at Fri Sep 10 22:53:01 2021
Module time:
	user time   =      92.27 seconds =       1.54 minutes
	system time =       1.96 seconds =       0.03 minutes
	total time  =         94 seconds =       1.57 minutes
Total time:
	user time   =      92.27 seconds =       1.54 minutes
	system time =       1.96 seconds =       0.03 minutes
	total time  =         94 seconds =       1.57 minutes

  //>>>>>>>>>>>>>>>>>>>>>>>>>>>>>>>>>>>//
  //            Monomer A HF           //
  //<<<<<<<<<<<<<<<<<<<<<<<<<<<<<<<<<<<//


*** tstart() called on r282
*** at Fri Sep 10 22:53:01 2021

   => Loading Basis Set <=

    Name: JUN-CC-PVTZ
    Role: ORBITAL
    Keyword: BASIS
    atoms 1-2, 9, 13, 17, 20, 23                      entry C          line   217 file /home/r08543048/miniconda3/share/psi4/basis/jun-cc-pvtz.gbs 
    atoms 3-4, 6-8, 10-12, 14-16, 18-19, 21-22, 24-26 entry H          line    36 file /home/r08543048/miniconda3/share/psi4/basis/jun-cc-pvtz.gbs 
    atoms 5                                           entry O          line   305 file /home/r08543048/miniconda3/share/psi4/basis/jun-cc-pvtz.gbs 


         ---------------------------------------------------------
                                   SCF
               by Justin Turney, Rob Parrish, Andy Simmonett
                          and Daniel G. A. Smith
                              RHF Reference
                        1 Threads,  20980 MiB Core
         ---------------------------------------------------------

  ==> Geometry <==

    Molecular point group: c1
    Full point group: C1

    Geometry (in Angstrom), charge = 0, multiplicity = 1:

       Center              X                  Y                   Z               Mass       
    ------------   -----------------  -----------------  -----------------  -----------------
         C           -1.750207922193    -0.762909136168     0.804969561521    12.000000000000
         C           -2.626133922193     0.311296863832     0.181654561521    12.000000000000
         H           -0.868019922193    -0.287791136168     1.243739561521     1.007825032230
         H           -2.301381922193    -1.217675136168     1.632314561521     1.007825032230
         O           -1.965756922193     1.024053863832    -0.863526438479    15.994914619570
         H           -3.498552922193    -0.143445136168    -0.288428438479     1.007825032230
         H           -2.983339922193     1.003444863832     0.950036561521     1.007825032230
         H           -1.233232922193     1.508267863832    -0.466592438479     1.007825032230
         C           -1.327834922193    -1.828254136168    -0.197756438479    12.000000000000
         H           -0.658662922193    -2.558341136168     0.256705561521     1.007825032230
         H           -2.199534922193    -2.361520136168    -0.579490438479     1.007825032230
         H           -0.817335922193    -1.376321136168    -1.046598438479     1.007825032230
      Gh(C)           1.223787077807     2.047790863832     0.388151561521    12.000000000000
      Gh(H)           2.061411077807     2.501654863832     0.919118561521     1.007825032230
      Gh(H)           0.478359077807     1.775946863832     1.139264561521     1.007825032230
      Gh(H)           0.794152077807     2.812495863832    -0.260957438479     1.007825032230
      Gh(C)           1.678561077807     0.824881863832    -0.399966438479    12.000000000000
      Gh(H)           0.839686077807     0.410734863832    -0.965802438479     1.007825032230
      Gh(H)           2.428175077807     1.124086863832    -1.137338438479     1.007825032230
      Gh(C)           2.263057077807    -0.262216136168     0.493006561521    12.000000000000
      Gh(H)           1.512548077807    -0.565055136168     1.228855561521     1.007825032230
      Gh(H)           3.101546077807     0.151412863832     1.060219561521     1.007825032230
      Gh(C)           2.724037077807    -1.478346136168    -0.300393438479    12.000000000000
      Gh(H)           3.493726077807    -1.199794136168    -1.021274438479     1.007825032230
      Gh(H)           3.136841077807    -2.249516136168     0.349464561521     1.007825032230
      Gh(H)           1.892023077807    -1.914930136168    -0.854091438479     1.007825032230

  Running in c1 symmetry.

  Rotational constants: A =      0.06928  B =      0.03159  C =      0.02448 [cm^-1]
  Rotational constants: A =   2077.03283  B =    947.17879  C =    733.99105 [MHz]
  Nuclear repulsion =  132.731955792875425

  Charge       = 0
  Multiplicity = 1
  Electrons    = 34
  Nalpha       = 17
  Nbeta        = 17

  ==> Algorithm <==

  SCF Algorithm Type is DF.
  DIIS enabled.
  MOM disabled.
  Fractional occupation disabled.
  Guess Type is SAD.
  Energy threshold   = 1.00e-08
  Density threshold  = 1.00e-08
  Integral threshold = 0.00e+00

  ==> Primary Basis <==

  Basis Set: JUN-CC-PVTZ
    Blend: JUN-CC-PVTZ
    Number of shells: 212
    Number of basis function: 564
    Number of Cartesian functions: 630
    Spherical Harmonics?: true
    Max angular momentum: 3

   => Loading Basis Set <=

    Name: (JUN-CC-PVTZ AUX)
    Role: JKFIT
    Keyword: DF_BASIS_SCF
    atoms 1-2, 9, 13, 17, 20, 23                      entry C          line   152 file /home/r08543048/miniconda3/share/psi4/basis/jun-cc-pvtz-jkfit.gbs 
    atoms 3-4, 6-8, 10-12, 14-16, 18-19, 21-22, 24-26 entry H          line    70 file /home/r08543048/miniconda3/share/psi4/basis/jun-cc-pvtz-jkfit.gbs 
    atoms 5                                           entry O          line   272 file /home/r08543048/miniconda3/share/psi4/basis/jun-cc-pvtz-jkfit.gbs 

  ==> Pre-Iterations <==

   -------------------------------------------------------
    Irrep   Nso     Nmo     Nalpha   Nbeta   Ndocc  Nsocc
   -------------------------------------------------------
     A        564     564       0       0       0       0
   -------------------------------------------------------
    Total     564     564      17      17      17       0
   -------------------------------------------------------

  ==> Integral Setup <==

  ==> DiskDFJK: Density-Fitted J/K Matrices <==

    J tasked:                  Yes
    K tasked:                  Yes
    wK tasked:                  No
    OpenMP threads:              1
    Integrals threads:           1
    Memory [MiB]:            15735
    Algorithm:                Core
    Integral Cache:           LOAD
    Schwarz Cutoff:          1E-12
    Fitting Condition:       1E-10

   => Auxiliary Basis Set <=

  Basis Set: (JUN-CC-PVTZ AUX)
    Blend: JUN-CC-PVTZ-JKFIT
    Number of shells: 412
    Number of basis function: 1300
    Number of Cartesian functions: 1558
    Spherical Harmonics?: true
    Max angular momentum: 4

  Minimum eigenvalue in the overlap matrix is 4.4646761946E-05.
  Using Symmetric Orthogonalization.

  SCF Guess: Superposition of Atomic Densities via on-the-fly atomic UHF.

  ==> Iterations <==

                           Total Energy        Delta E     RMS |[F,P]|

   @DF-RHF iter SAD:  -192.49659580368268   -1.92497e+02   0.00000e+00 
   @DF-RHF iter   1:  -193.01135951855187   -5.14764e-01   1.01427e-03 DIIS
   @DF-RHF iter   2:  -193.15219149044788   -1.40832e-01   5.37567e-04 DIIS
   @DF-RHF iter   3:  -193.18944873263794   -3.72572e-02   9.11145e-05 DIIS
   @DF-RHF iter   4:  -193.19154894296636   -2.10021e-03   3.31669e-05 DIIS
   @DF-RHF iter   5:  -193.19174658120903   -1.97638e-04   7.51901e-06 DIIS
   @DF-RHF iter   6:  -193.19176090199127   -1.43208e-05   1.55427e-06 DIIS
   @DF-RHF iter   7:  -193.19176183502213   -9.33031e-07   3.91883e-07 DIIS
   @DF-RHF iter   8:  -193.19176188904407   -5.40219e-08   1.31585e-07 DIIS
   @DF-RHF iter   9:  -193.19176189514778   -6.10370e-09   3.52255e-08 DIIS
   @DF-RHF iter  10:  -193.19176189566613   -5.18355e-10   7.75218e-09 DIIS
  Energy and wave function converged.


  ==> Post-Iterations <==

    Orbital Energies [Eh]
    ---------------------

    Doubly Occupied:                                                      

       1A    -20.555092     2A    -11.271471     3A    -11.222145  
       4A    -11.208984     5A     -1.355539     6A     -1.051186  
       7A     -0.919802     8A     -0.811225     9A     -0.676704  
      10A     -0.637783    11A     -0.624598    12A     -0.564276  
      13A     -0.530911    14A     -0.521716    15A     -0.484517  
      16A     -0.471384    17A     -0.437516  

    Virtual:                                                              

      18A      0.027149    19A      0.040308    20A      0.050266  
      21A      0.054802    22A      0.065677    23A      0.069146  
      24A      0.073270    25A      0.080905    26A      0.083248  
      27A      0.099544    28A      0.100555    29A      0.102788  
      30A      0.111488    31A      0.114916    32A      0.117157  
      33A      0.120151    34A      0.126922    35A      0.139270  
      36A      0.140554    37A      0.143597    38A      0.152991  
      39A      0.160991    40A      0.164911    41A      0.170665  
      42A      0.177583    43A      0.178941    44A      0.197097  
      45A      0.201466    46A      0.214899    47A      0.221729  
      48A      0.234868    49A      0.239499    50A      0.251749  
      51A      0.264820    52A      0.268251    53A      0.277477  
      54A      0.283619    55A      0.288865    56A      0.291851  
      57A      0.292723    58A      0.306671    59A      0.309786  
      60A      0.315542    61A      0.321808    62A      0.325762  
      63A      0.331805    64A      0.332849    65A      0.343794  
      66A      0.353662    67A      0.356191    68A      0.363629  
      69A      0.366374    70A      0.366635    71A      0.376815  
      72A      0.378883    73A      0.383774    74A      0.391314  
      75A      0.393919    76A      0.400089    77A      0.409580  
      78A      0.414924    79A      0.418641    80A      0.440421  
      81A      0.444518    82A      0.446880    83A      0.459554  
      84A      0.466916    85A      0.468201    86A      0.475043  
      87A      0.486432    88A      0.495578    89A      0.502130  
      90A      0.513677    91A      0.521295    92A      0.528323  
      93A      0.530784    94A      0.539356    95A      0.544347  
      96A      0.548836    97A      0.560246    98A      0.565074  
      99A      0.570415   100A      0.574799   101A      0.579757  
     102A      0.596743   103A      0.599202   104A      0.601540  
     105A      0.616405   106A      0.619627   107A      0.630834  
     108A      0.633959   109A      0.637349   110A      0.655584  
     111A      0.657213   112A      0.663896   113A      0.670206  
     114A      0.678210   115A      0.685571   116A      0.686997  
     117A      0.696264   118A      0.701153   119A      0.719384  
     120A      0.725656   121A      0.734958   122A      0.751506  
     123A      0.755545   124A      0.768451   125A      0.781380  
     126A      0.792477   127A      0.801743   128A      0.806029  
     129A      0.817221   130A      0.830793   131A      0.837236  
     132A      0.849753   133A      0.855349   134A      0.865951  
     135A      0.888829   136A      0.894562   137A      0.906812  
     138A      0.920735   139A      0.933640   140A      0.945542  
     141A      0.961712   142A      0.989037   143A      1.016696  
     144A      1.023933   145A      1.041814   146A      1.053966  
     147A      1.063596   148A      1.066243   149A      1.092439  
     150A      1.102568   151A      1.105885   152A      1.107053  
     153A      1.115816   154A      1.132140   155A      1.144435  
     156A      1.157866   157A      1.166644   158A      1.178791  
     159A      1.190106   160A      1.201416   161A      1.214680  
     162A      1.221121   163A      1.227621   164A      1.235721  
     165A      1.237258   166A      1.246023   167A      1.254128  
     168A      1.266924   169A      1.273571   170A      1.284262  
     171A      1.290962   172A      1.293673   173A      1.307880  
     174A      1.312317   175A      1.320096   176A      1.327181  
     177A      1.332024   178A      1.350330   179A      1.360400  
     180A      1.363439   181A      1.366953   182A      1.383599  
     183A      1.389525   184A      1.396356   185A      1.404151  
     186A      1.409585   187A      1.422321   188A      1.426005  
     189A      1.436704   190A      1.442924   191A      1.451424  
     192A      1.458788   193A      1.467855   194A      1.485990  
     195A      1.490742   196A      1.504770   197A      1.513624  
     198A      1.530166   199A      1.533491   200A      1.537889  
     201A      1.548590   202A      1.552816   203A      1.558618  
     204A      1.566374   205A      1.570032   206A      1.584342  
     207A      1.590599   208A      1.592591   209A      1.607677  
     210A      1.621155   211A      1.626249   212A      1.633026  
     213A      1.640851   214A      1.647494   215A      1.667786  
     216A      1.671516   217A      1.693807   218A      1.705073  
     219A      1.708072   220A      1.712870   221A      1.720148  
     222A      1.733995   223A      1.741379   224A      1.747569  
     225A      1.761568   226A      1.787334   227A      1.789316  
     228A      1.805266   229A      1.823951   230A      1.845317  
     231A      1.859917   232A      1.869143   233A      1.883206  
     234A      1.886706   235A      1.910743   236A      1.932027  
     237A      1.941491   238A      1.962217   239A      1.978430  
     240A      1.979879   241A      1.993874   242A      2.034564  
     243A      2.057147   244A      2.089932   245A      2.091957  
     246A      2.112875   247A      2.131320   248A      2.170539  
     249A      2.177818   250A      2.225106   251A      2.233115  
     252A      2.264454   253A      2.305572   254A      2.325964  
     255A      2.336930   256A      2.365987   257A      2.404435  
     258A      2.419519   259A      2.421193   260A      2.459040  
     261A      2.459838   262A      2.489456   263A      2.518737  
     264A      2.534801   265A      2.569156   266A      2.609413  
     267A      2.620354   268A      2.639530   269A      2.669742  
     270A      2.686118   271A      2.823954   272A      2.839401  
     273A      2.855371   274A      2.879362   275A      2.903513  
     276A      2.930806   277A      2.946010   278A      2.990575  
     279A      3.012994   280A      3.029611   281A      3.056337  
     282A      3.124006   283A      3.131579   284A      3.173955  
     285A      3.192672   286A      3.209479   287A      3.252603  
     288A      3.282746   289A      3.308152   290A      3.324363  
     291A      3.343422   292A      3.366096   293A      3.387569  
     294A      3.405837   295A      3.412170   296A      3.446260  
     297A      3.455295   298A      3.461457   299A      3.470503  
     300A      3.502657   301A      3.510499   302A      3.520032  
     303A      3.530893   304A      3.534986   305A      3.541304  
     306A      3.554548   307A      3.560141   308A      3.569602  
     309A      3.578105   310A      3.582844   311A      3.591889  
     312A      3.607541   313A      3.616324   314A      3.629009  
     315A      3.634893   316A      3.642430   317A      3.650749  
     318A      3.658575   319A      3.676304   320A      3.689727  
     321A      3.695970   322A      3.719075   323A      3.734264  
     324A      3.746329   325A      3.764586   326A      3.775680  
     327A      3.785262   328A      3.796772   329A      3.802832  
     330A      3.813142   331A      3.821835   332A      3.844305  
     333A      3.852504   334A      3.859562   335A      3.861869  
     336A      3.864682   337A      3.889625   338A      3.890866  
     339A      3.905603   340A      3.909208   341A      3.913112  
     342A      3.920069   343A      3.931470   344A      3.944124  
     345A      3.950184   346A      3.969697   347A      3.977129  
     348A      3.986701   349A      4.007068   350A      4.044688  
     351A      4.059368   352A      4.072431   353A      4.076827  
     354A      4.096611   355A      4.106674   356A      4.119938  
     357A      4.139348   358A      4.158864   359A      4.163138  
     360A      4.167812   361A      4.173509   362A      4.209797  
     363A      4.221316   364A      4.234768   365A      4.253747  
     366A      4.268982   367A      4.280391   368A      4.289618  
     369A      4.294868   370A      4.312790   371A      4.324257  
     372A      4.329547   373A      4.341793   374A      4.364421  
     375A      4.369140   376A      4.372430   377A      4.383994  
     378A      4.391157   379A      4.411488   380A      4.425209  
     381A      4.431865   382A      4.440852   383A      4.451645  
     384A      4.470395   385A      4.475230   386A      4.480864  
     387A      4.491056   388A      4.504167   389A      4.511015  
     390A      4.518969   391A      4.536095   392A      4.545958  
     393A      4.548454   394A      4.552561   395A      4.560776  
     396A      4.567843   397A      4.586673   398A      4.591190  
     399A      4.601225   400A      4.611000   401A      4.619015  
     402A      4.642285   403A      4.648579   404A      4.654274  
     405A      4.667252   406A      4.675178   407A      4.682352  
     408A      4.689102   409A      4.698070   410A      4.723376  
     411A      4.724676   412A      4.736194   413A      4.750010  
     414A      4.755216   415A      4.768567   416A      4.777977  
     417A      4.780313   418A      4.788195   419A      4.797880  
     420A      4.809308   421A      4.817308   422A      4.832862  
     423A      4.840781   424A      4.851801   425A      4.861588  
     426A      4.870890   427A      4.890635   428A      4.895770  
     429A      4.897866   430A      4.902600   431A      4.910370  
     432A      4.918443   433A      4.930714   434A      4.936231  
     435A      4.945160   436A      4.950672   437A      4.962346  
     438A      4.974123   439A      4.995177   440A      5.003080  
     441A      5.003264   442A      5.019468   443A      5.027912  
     444A      5.049579   445A      5.056854   446A      5.067643  
     447A      5.084584   448A      5.088513   449A      5.125354  
     450A      5.149162   451A      5.155342   452A      5.175332  
     453A      5.189573   454A      5.194178   455A      5.219987  
     456A      5.225766   457A      5.237510   458A      5.255387  
     459A      5.269158   460A      5.281178   461A      5.290991  
     462A      5.326269   463A      5.333404   464A      5.339822  
     465A      5.373296   466A      5.381035   467A      5.401241  
     468A      5.428929   469A      5.438021   470A      5.473256  
     471A      5.487951   472A      5.498196   473A      5.511998  
     474A      5.525804   475A      5.541731   476A      5.551487  
     477A      5.590436   478A      5.608871   479A      5.634724  
     480A      5.657261   481A      5.662773   482A      5.682008  
     483A      5.761684   484A      5.770230   485A      5.793091  
     486A      5.800273   487A      5.804633   488A      5.822308  
     489A      5.842414   490A      5.848725   491A      5.894030  
     492A      5.906819   493A      5.928038   494A      5.943420  
     495A      5.951438   496A      5.990235   497A      6.022255  
     498A      6.029332   499A      6.059114   500A      6.095550  
     501A      6.099542   502A      6.127253   503A      6.143018  
     504A      6.259514   505A      6.294989   506A      6.317650  
     507A      6.344604   508A      6.376460   509A      6.393317  
     510A      6.395085   511A      6.430102   512A      6.448453  
     513A      6.470032   514A      6.476344   515A      6.492058  
     516A      6.510496   517A      6.544025   518A      6.547490  
     519A      6.562319   520A      6.618817   521A      6.736996  
     522A      6.783848   523A      6.809134   524A      6.932247  
     525A      6.945695   526A      7.048039   527A      7.078092  
     528A      7.237596   529A      7.265384   530A      7.341016  
     531A      7.391024   532A      7.506576   533A      7.521454  
     534A      7.540858   535A      7.577978   536A      7.587139  
     537A      7.604117   538A      7.644082   539A      7.679140  
     540A      7.712522   541A      7.742984   542A      7.805301  
     543A      7.806661   544A      7.838486   545A      7.871860  
     546A      7.927608   547A      7.938910   548A      8.116272  
     549A      8.158803   550A      8.297791   551A      8.445191  
     552A      8.647046   553A      9.596510   554A      9.685658  
     555A      9.899739   556A      9.992726   557A     13.740930  
     558A     13.900693   559A     14.150243   560A     14.764202  
     561A     43.841014   562A     45.468926   563A     45.600674  
     564A     45.958554  

    Final Occupation by Irrep:
              A 
    DOCC [    17 ]

  @DF-RHF Final Energy:  -193.19176189566613

   => Energetics <=

    Nuclear Repulsion Energy =            132.7319557928754250
    One-Electron Energy =                -525.1577388394071022
    Two-Electron Energy =                 199.2340211508655727
    Total Energy =                       -193.1917618956661329

Computation Completed


Properties will be evaluated at   0.000000,   0.000000,   0.000000 [a0]

Properties computed using the SCF density matrix

  Nuclear Dipole Moment: [e a0]
     X:  -121.9085      Y:   -20.6361      Z:    -0.8944

  Electronic Dipole Moment: [e a0]
     X:   122.0911      Y:    20.5848      Z:     1.5810

  Dipole Moment: [e a0]
     X:     0.1827      Y:    -0.0512      Z:     0.6866     Total:     0.7123

  Dipole Moment: [D]
     X:     0.4643      Y:    -0.1302      Z:     1.7451     Total:     1.8105


*** tstop() called on r282 at Fri Sep 10 22:53:59 2021
Module time:
	user time   =      57.39 seconds =       0.96 minutes
	system time =       0.84 seconds =       0.01 minutes
	total time  =         58 seconds =       0.97 minutes
Total time:
	user time   =     149.67 seconds =       2.49 minutes
	system time =       2.80 seconds =       0.05 minutes
	total time  =        152 seconds =       2.53 minutes

  //>>>>>>>>>>>>>>>>>>>>>>>>>>>>>>>>>>>//
  //            Monomer B HF           //
  //<<<<<<<<<<<<<<<<<<<<<<<<<<<<<<<<<<<//


*** tstart() called on r282
*** at Fri Sep 10 22:53:59 2021

   => Loading Basis Set <=

    Name: JUN-CC-PVTZ
    Role: ORBITAL
    Keyword: BASIS
    atoms 1-2, 9, 13, 17, 20, 23                      entry C          line   217 file /home/r08543048/miniconda3/share/psi4/basis/jun-cc-pvtz.gbs 
    atoms 3-4, 6-8, 10-12, 14-16, 18-19, 21-22, 24-26 entry H          line    36 file /home/r08543048/miniconda3/share/psi4/basis/jun-cc-pvtz.gbs 
    atoms 5                                           entry O          line   305 file /home/r08543048/miniconda3/share/psi4/basis/jun-cc-pvtz.gbs 


         ---------------------------------------------------------
                                   SCF
               by Justin Turney, Rob Parrish, Andy Simmonett
                          and Daniel G. A. Smith
                              RHF Reference
                        1 Threads,  20980 MiB Core
         ---------------------------------------------------------

  ==> Geometry <==

    Molecular point group: c1
    Full point group: C1

    Geometry (in Angstrom), charge = 0, multiplicity = 1:

       Center              X                  Y                   Z               Mass       
    ------------   -----------------  -----------------  -----------------  -----------------
      Gh(C)          -1.750207922193    -0.762909136168     0.804969561521    12.000000000000
      Gh(C)          -2.626133922193     0.311296863832     0.181654561521    12.000000000000
      Gh(H)          -0.868019922193    -0.287791136168     1.243739561521     1.007825032230
      Gh(H)          -2.301381922193    -1.217675136168     1.632314561521     1.007825032230
      Gh(O)          -1.965756922193     1.024053863832    -0.863526438479    15.994914619570
      Gh(H)          -3.498552922193    -0.143445136168    -0.288428438479     1.007825032230
      Gh(H)          -2.983339922193     1.003444863832     0.950036561521     1.007825032230
      Gh(H)          -1.233232922193     1.508267863832    -0.466592438479     1.007825032230
      Gh(C)          -1.327834922193    -1.828254136168    -0.197756438479    12.000000000000
      Gh(H)          -0.658662922193    -2.558341136168     0.256705561521     1.007825032230
      Gh(H)          -2.199534922193    -2.361520136168    -0.579490438479     1.007825032230
      Gh(H)          -0.817335922193    -1.376321136168    -1.046598438479     1.007825032230
         C            1.223787077807     2.047790863832     0.388151561521    12.000000000000
         H            2.061411077807     2.501654863832     0.919118561521     1.007825032230
         H            0.478359077807     1.775946863832     1.139264561521     1.007825032230
         H            0.794152077807     2.812495863832    -0.260957438479     1.007825032230
         C            1.678561077807     0.824881863832    -0.399966438479    12.000000000000
         H            0.839686077807     0.410734863832    -0.965802438479     1.007825032230
         H            2.428175077807     1.124086863832    -1.137338438479     1.007825032230
         C            2.263057077807    -0.262216136168     0.493006561521    12.000000000000
         H            1.512548077807    -0.565055136168     1.228855561521     1.007825032230
         H            3.101546077807     0.151412863832     1.060219561521     1.007825032230
         C            2.724037077807    -1.478346136168    -0.300393438479    12.000000000000
         H            3.493726077807    -1.199794136168    -1.021274438479     1.007825032230
         H            3.136841077807    -2.249516136168     0.349464561521     1.007825032230
         H            1.892023077807    -1.914930136168    -0.854091438479     1.007825032230

  Running in c1 symmetry.

  Rotational constants: A =      0.06928  B =      0.03159  C =      0.02448 [cm^-1]
  Rotational constants: A =   2077.03283  B =    947.17879  C =    733.99105 [MHz]
  Nuclear repulsion =  131.069730069215524

  Charge       = 0
  Multiplicity = 1
  Electrons    = 34
  Nalpha       = 17
  Nbeta        = 17

  ==> Algorithm <==

  SCF Algorithm Type is DF.
  DIIS enabled.
  MOM disabled.
  Fractional occupation disabled.
  Guess Type is SAD.
  Energy threshold   = 1.00e-08
  Density threshold  = 1.00e-08
  Integral threshold = 0.00e+00

  ==> Primary Basis <==

  Basis Set: JUN-CC-PVTZ
    Blend: JUN-CC-PVTZ
    Number of shells: 212
    Number of basis function: 564
    Number of Cartesian functions: 630
    Spherical Harmonics?: true
    Max angular momentum: 3

   => Loading Basis Set <=

    Name: (JUN-CC-PVTZ AUX)
    Role: JKFIT
    Keyword: DF_BASIS_SCF
    atoms 1-2, 9, 13, 17, 20, 23                      entry C          line   152 file /home/r08543048/miniconda3/share/psi4/basis/jun-cc-pvtz-jkfit.gbs 
    atoms 3-4, 6-8, 10-12, 14-16, 18-19, 21-22, 24-26 entry H          line    70 file /home/r08543048/miniconda3/share/psi4/basis/jun-cc-pvtz-jkfit.gbs 
    atoms 5                                           entry O          line   272 file /home/r08543048/miniconda3/share/psi4/basis/jun-cc-pvtz-jkfit.gbs 

  ==> Pre-Iterations <==

   -------------------------------------------------------
    Irrep   Nso     Nmo     Nalpha   Nbeta   Ndocc  Nsocc
   -------------------------------------------------------
     A        564     564       0       0       0       0
   -------------------------------------------------------
    Total     564     564      17      17      17       0
   -------------------------------------------------------

  ==> Integral Setup <==

  ==> DiskDFJK: Density-Fitted J/K Matrices <==

    J tasked:                  Yes
    K tasked:                  Yes
    wK tasked:                  No
    OpenMP threads:              1
    Integrals threads:           1
    Memory [MiB]:            15735
    Algorithm:                Core
    Integral Cache:           LOAD
    Schwarz Cutoff:          1E-12
    Fitting Condition:       1E-10

   => Auxiliary Basis Set <=

  Basis Set: (JUN-CC-PVTZ AUX)
    Blend: JUN-CC-PVTZ-JKFIT
    Number of shells: 412
    Number of basis function: 1300
    Number of Cartesian functions: 1558
    Spherical Harmonics?: true
    Max angular momentum: 4

  Minimum eigenvalue in the overlap matrix is 4.4646761946E-05.
  Using Symmetric Orthogonalization.

  SCF Guess: Superposition of Atomic Densities via on-the-fly atomic UHF.

  ==> Iterations <==

                           Total Energy        Delta E     RMS |[F,P]|

   @DF-RHF iter SAD:  -156.79252055169144   -1.56793e+02   0.00000e+00 
   @DF-RHF iter   1:  -157.14985235874144   -3.57332e-01   1.02164e-03 DIIS
   @DF-RHF iter   2:  -157.31616340944547   -1.66311e-01   4.75025e-04 DIIS
   @DF-RHF iter   3:  -157.35340525143292   -3.72418e-02   8.37119e-05 DIIS
   @DF-RHF iter   4:  -157.35579853391988   -2.39328e-03   1.95153e-05 DIIS
   @DF-RHF iter   5:  -157.35588995507004   -9.14212e-05   5.05326e-06 DIIS
   @DF-RHF iter   6:  -157.35589760030979   -7.64524e-06   6.31296e-07 DIIS
   @DF-RHF iter   7:  -157.35589777916871   -1.78859e-07   1.10819e-07 DIIS
   @DF-RHF iter   8:  -157.35589778410144   -4.93273e-09   2.46599e-08 DIIS
   @DF-RHF iter   9:  -157.35589778436506   -2.63611e-10   5.58851e-09 DIIS
  Energy and wave function converged.


  ==> Post-Iterations <==

    Orbital Energies [Eh]
    ---------------------

    Doubly Occupied:                                                      

       1A    -11.213527     2A    -11.212897     3A    -11.207869  
       4A    -11.207462     5A     -1.071329     6A     -0.980103  
       7A     -0.860129     8A     -0.787722     9A     -0.638776  
      10A     -0.584451    11A     -0.575428    12A     -0.566391  
      13A     -0.514313    14A     -0.493698    15A     -0.469563  
      16A     -0.461582    17A     -0.455997  

    Virtual:                                                              

      18A      0.032427    19A      0.045627    20A      0.051361  
      21A      0.054647    22A      0.064932    23A      0.072280  
      24A      0.075050    25A      0.080864    26A      0.087249  
      27A      0.098326    28A      0.100375    29A      0.107673  
      30A      0.109854    31A      0.117847    32A      0.119660  
      33A      0.121165    34A      0.129989    35A      0.137691  
      36A      0.144119    37A      0.152959    38A      0.156858  
      39A      0.161324    40A      0.166887    41A      0.175516  
      42A      0.180176    43A      0.191670    44A      0.197259  
      45A      0.201150    46A      0.213737    47A      0.215264  
      48A      0.234523    49A      0.237460    50A      0.246375  
      51A      0.256026    52A      0.266465    53A      0.278500  
      54A      0.283204    55A      0.292283    56A      0.297997  
      57A      0.298908    58A      0.306444    59A      0.314657  
      60A      0.320079    61A      0.324715    62A      0.328742  
      63A      0.333071    64A      0.341223    65A      0.342796  
      66A      0.348141    67A      0.352230    68A      0.363076  
      69A      0.367840    70A      0.377055    71A      0.378128  
      72A      0.385183    73A      0.389803    74A      0.396685  
      75A      0.398169    76A      0.405461    77A      0.408949  
      78A      0.417882    79A      0.426393    80A      0.431264  
      81A      0.436478    82A      0.448499    83A      0.456852  
      84A      0.458732    85A      0.465304    86A      0.476717  
      87A      0.484568    88A      0.492582    89A      0.496864  
      90A      0.505525    91A      0.517719    92A      0.525050  
      93A      0.529730    94A      0.534839    95A      0.541513  
      96A      0.555140    97A      0.560895    98A      0.565957  
      99A      0.568744   100A      0.580063   101A      0.582191  
     102A      0.590060   103A      0.595588   104A      0.602935  
     105A      0.609584   106A      0.618403   107A      0.624904  
     108A      0.633758   109A      0.635446   110A      0.642602  
     111A      0.650903   112A      0.661170   113A      0.680325  
     114A      0.686303   115A      0.697331   116A      0.711061  
     117A      0.720341   118A      0.727340   119A      0.743617  
     120A      0.747093   121A      0.758947   122A      0.770138  
     123A      0.788649   124A      0.795848   125A      0.803130  
     126A      0.809228   127A      0.822021   128A      0.826620  
     129A      0.835793   130A      0.840707   131A      0.844797  
     132A      0.854993   133A      0.868867   134A      0.874258  
     135A      0.881682   136A      0.890891   137A      0.902079  
     138A      0.906467   139A      0.927536   140A      0.934907  
     141A      0.946633   142A      0.953417   143A      0.973726  
     144A      0.977451   145A      0.999693   146A      1.008147  
     147A      1.019007   148A      1.027923   149A      1.033976  
     150A      1.055894   151A      1.068711   152A      1.073901  
     153A      1.086299   154A      1.100521   155A      1.101972  
     156A      1.114920   157A      1.135071   158A      1.139178  
     159A      1.155118   160A      1.157085   161A      1.182388  
     162A      1.191375   163A      1.197128   164A      1.207425  
     165A      1.223998   166A      1.238490   167A      1.240750  
     168A      1.253131   169A      1.265376   170A      1.271862  
     171A      1.298440   172A      1.301057   173A      1.309069  
     174A      1.314463   175A      1.318393   176A      1.332597  
     177A      1.335662   178A      1.340854   179A      1.344318  
     180A      1.361583   181A      1.367879   182A      1.370752  
     183A      1.378940   184A      1.392355   185A      1.405289  
     186A      1.415783   187A      1.419163   188A      1.435757  
     189A      1.440222   190A      1.446431   191A      1.455953  
     192A      1.465918   193A      1.474974   194A      1.487929  
     195A      1.492185   196A      1.496608   197A      1.512770  
     198A      1.522079   199A      1.534035   200A      1.549082  
     201A      1.557127   202A      1.561818   203A      1.568551  
     204A      1.569999   205A      1.586681   206A      1.588358  
     207A      1.595203   208A      1.601724   209A      1.614107  
     210A      1.629413   211A      1.629785   212A      1.632257  
     213A      1.642386   214A      1.649643   215A      1.668169  
     216A      1.678516   217A      1.704791   218A      1.709190  
     219A      1.713473   220A      1.722864   221A      1.730548  
     222A      1.740295   223A      1.759506   224A      1.773342  
     225A      1.778104   226A      1.800504   227A      1.813404  
     228A      1.819968   229A      1.841718   230A      1.854051  
     231A      1.872019   232A      1.888487   233A      1.894019  
     234A      1.911391   235A      1.918294   236A      1.927897  
     237A      1.936502   238A      1.946542   239A      1.961850  
     240A      1.968550   241A      1.982955   242A      2.016848  
     243A      2.025028   244A      2.057181   245A      2.064540  
     246A      2.073956   247A      2.126309   248A      2.138160  
     249A      2.156919   250A      2.188659   251A      2.206551  
     252A      2.227648   253A      2.261476   254A      2.359065  
     255A      2.413449   256A      2.419894   257A      2.447300  
     258A      2.489328   259A      2.567756   260A      2.599805  
     261A      2.617178   262A      2.677302   263A      2.691288  
     264A      2.748694   265A      2.765437   266A      2.797397  
     267A      2.816682   268A      2.829983   269A      2.863472  
     270A      2.874641   271A      2.895546   272A      2.905688  
     273A      2.918323   274A      2.939766   275A      2.950686  
     276A      2.985555   277A      3.001552   278A      3.016090  
     279A      3.032697   280A      3.048070   281A      3.052778  
     282A      3.078271   283A      3.092892   284A      3.132776  
     285A      3.143896   286A      3.150066   287A      3.153358  
     288A      3.165110   289A      3.172549   290A      3.216718  
     291A      3.256382   292A      3.270496   293A      3.283174  
     294A      3.295943   295A      3.309128   296A      3.333484  
     297A      3.343937   298A      3.352923   299A      3.382553  
     300A      3.407112   301A      3.409277   302A      3.412930  
     303A      3.420541   304A      3.439490   305A      3.452755  
     306A      3.468020   307A      3.475902   308A      3.493838  
     309A      3.500161   310A      3.507377   311A      3.511105  
     312A      3.521971   313A      3.538412   314A      3.561141  
     315A      3.566296   316A      3.572928   317A      3.589063  
     318A      3.590720   319A      3.601052   320A      3.623569  
     321A      3.630945   322A      3.635606   323A      3.656997  
     324A      3.660393   325A      3.669459   326A      3.676521  
     327A      3.683816   328A      3.689936   329A      3.724081  
     330A      3.729479   331A      3.742761   332A      3.754349  
     333A      3.766108   334A      3.777053   335A      3.788558  
     336A      3.818992   337A      3.825357   338A      3.836714  
     339A      3.837979   340A      3.848897   341A      3.858722  
     342A      3.867462   343A      3.878677   344A      3.899449  
     345A      3.909326   346A      3.924696   347A      3.942332  
     348A      3.948977   349A      3.953231   350A      3.960623  
     351A      3.967261   352A      3.975849   353A      3.982300  
     354A      3.984783   355A      4.000659   356A      4.009887  
     357A      4.048093   358A      4.061374   359A      4.082670  
     360A      4.105435   361A      4.132656   362A      4.157864  
     363A      4.169137   364A      4.178387   365A      4.193116  
     366A      4.198054   367A      4.212538   368A      4.216768  
     369A      4.241019   370A      4.244889   371A      4.248976  
     372A      4.261772   373A      4.270283   374A      4.285020  
     375A      4.297226   376A      4.305803   377A      4.312669  
     378A      4.327857   379A      4.340591   380A      4.354347  
     381A      4.370923   382A      4.382238   383A      4.391553  
     384A      4.400320   385A      4.414002   386A      4.421435  
     387A      4.434617   388A      4.441221   389A      4.449333  
     390A      4.458589   391A      4.483621   392A      4.492908  
     393A      4.503966   394A      4.512215   395A      4.519701  
     396A      4.526810   397A      4.536392   398A      4.548165  
     399A      4.548264   400A      4.558077   401A      4.567067  
     402A      4.576729   403A      4.588229   404A      4.600806  
     405A      4.613390   406A      4.623794   407A      4.637495  
     408A      4.647348   409A      4.658814   410A      4.667771  
     411A      4.674618   412A      4.679657   413A      4.712691  
     414A      4.725146   415A      4.733205   416A      4.747094  
     417A      4.749330   418A      4.752172   419A      4.760696  
     420A      4.774952   421A      4.780445   422A      4.799190  
     423A      4.805955   424A      4.810628   425A      4.827663  
     426A      4.834812   427A      4.842052   428A      4.861713  
     429A      4.872566   430A      4.889091   431A      4.896962  
     432A      4.913119   433A      4.919055   434A      4.929963  
     435A      4.932253   436A      4.943961   437A      4.958526  
     438A      4.977925   439A      4.989801   440A      4.994254  
     441A      5.010150   442A      5.023786   443A      5.043777  
     444A      5.058771   445A      5.062390   446A      5.077500  
     447A      5.081479   448A      5.094450   449A      5.101908  
     450A      5.124209   451A      5.133091   452A      5.141263  
     453A      5.145379   454A      5.170436   455A      5.180799  
     456A      5.195040   457A      5.230693   458A      5.259224  
     459A      5.265782   460A      5.270386   461A      5.275234  
     462A      5.293117   463A      5.305012   464A      5.311217  
     465A      5.330256   466A      5.334387   467A      5.360629  
     468A      5.366317   469A      5.375829   470A      5.386631  
     471A      5.413673   472A      5.446880   473A      5.453868  
     474A      5.465667   475A      5.523029   476A      5.543887  
     477A      5.562857   478A      5.569769   479A      5.591806  
     480A      5.628519   481A      5.631626   482A      5.652008  
     483A      5.676493   484A      5.693504   485A      5.730748  
     486A      5.754720   487A      5.761747   488A      5.785598  
     489A      5.803209   490A      5.813870   491A      5.818058  
     492A      5.864613   493A      5.868183   494A      5.899513  
     495A      5.911735   496A      5.913976   497A      5.952238  
     498A      5.962383   499A      5.973028   500A      5.999602  
     501A      6.013800   502A      6.023163   503A      6.078513  
     504A      6.108643   505A      6.160449   506A      6.183740  
     507A      6.208702   508A      6.243715   509A      6.303359  
     510A      6.340563   511A      6.389863   512A      6.438918  
     513A      6.461133   514A      6.477436   515A      6.499949  
     516A      6.524638   517A      6.555725   518A      6.563665  
     519A      6.600861   520A      6.604304   521A      6.655147  
     522A      6.686856   523A      6.873547   524A      6.962046  
     525A      7.003967   526A      7.136672   527A      7.289287  
     528A      7.396079   529A      7.483011   530A      7.516790  
     531A      7.582361   532A      7.617541   533A      7.687974  
     534A      7.715573   535A      7.729762   536A      7.812949  
     537A      7.872666   538A      7.930856   539A      7.997698  
     540A      8.054844   541A      8.234271   542A      8.358518  
     543A      8.492491   544A      8.582936   545A      9.553498  
     546A      9.629901   547A      9.762662   548A      9.893375  
     549A      9.973640   550A     10.018248   551A     10.137298  
     552A     10.329979   553A     11.304421   554A     11.704458  
     555A     12.772151   556A     13.568960   557A     13.748545  
     558A     14.286273   559A     14.570819   560A     14.824721  
     561A     43.963077   562A     45.043241   563A     45.893113  
     564A     61.509084  

    Final Occupation by Irrep:
              A 
    DOCC [    17 ]

  @DF-RHF Final Energy:  -157.35589778436506

   => Energetics <=

    Nuclear Repulsion Energy =            131.0697300692155238
    One-Electron Energy =                -470.2487778535709708
    Two-Electron Energy =                 181.8231499999904202
    Total Energy =                       -157.3558977843650553

Computation Completed


Properties will be evaluated at   0.000000,   0.000000,   0.000000 [a0]

Properties computed using the SCF density matrix

  Nuclear Dipole Moment: [e a0]
     X:   126.7536      Y:    18.2164      Z:     2.9144

  Electronic Dipole Moment: [e a0]
     X:  -126.7508      Y:   -18.2166      Z:    -2.9140

  Dipole Moment: [e a0]
     X:     0.0028      Y:    -0.0003      Z:     0.0004     Total:     0.0029

  Dipole Moment: [D]
     X:     0.0072      Y:    -0.0006      Z:     0.0011     Total:     0.0073


*** tstop() called on r282 at Fri Sep 10 22:54:53 2021
Module time:
	user time   =      52.57 seconds =       0.88 minutes
	system time =       0.83 seconds =       0.01 minutes
	total time  =         54 seconds =       0.90 minutes
Total time:
	user time   =     202.25 seconds =       3.37 minutes
	system time =       3.63 seconds =       0.06 minutes
	total time  =        206 seconds =       3.43 minutes
  Constructing Basis Sets for SAPT...

   => Loading Basis Set <=

    Name: (JUN-CC-PVTZ AUX)
    Role: RIFIT
    Keyword: DF_BASIS_SAPT
    atoms 1-2, 9, 13, 17, 20, 23                      entry C          line   132 file /home/r08543048/miniconda3/share/psi4/basis/jun-cc-pvtz-ri.gbs 
    atoms 3-4, 6-8, 10-12, 14-16, 18-19, 21-22, 24-26 entry H          line    30 file /home/r08543048/miniconda3/share/psi4/basis/jun-cc-pvtz-ri.gbs 
    atoms 5                                           entry O          line   244 file /home/r08543048/miniconda3/share/psi4/basis/jun-cc-pvtz-ri.gbs 


  //>>>>>>>>>>>>>>>>>>>>>>>>>>>>>>>>>>>//
  //               SAPT0               //
  //<<<<<<<<<<<<<<<<<<<<<<<<<<<<<<<<<<<//


*** tstart() called on r282
*** at Fri Sep 10 22:54:53 2021

        SAPT0  
    Ed Hohenstein
     6 June 2009

      Orbital Information
  --------------------------
    NSO        =       564
    NMO        =       564
    NRI        =      1316
    NOCC A     =        17
    NOCC B     =        17
    FOCC A     =         0
    FOCC B     =         0
    NVIR A     =       547
    NVIR B     =       547

    Elst10,r            =    -0.002500488737 [Eh]
    Exch10              =     0.006781925961 [Eh]
    Exch10 (S^2)        =     0.006769115191 [Eh]

    Iter     Energy [mEh]          dE [mEh]         Residual      Time [s]
       1      -0.46904663       0.469046631       2.740813962             2
       2      -0.57014727       0.101100643       0.617035475             3
       3      -0.57072584       0.000578561       0.231969317             5
       4      -0.56896312      -0.001762714       0.069641095             6
       5      -0.56899360       0.000030479       0.025415865             8
       6      -0.56914398       0.000150379       0.007680825             9
       7      -0.56914255      -0.000001433       0.002324418            11
       8      -0.56913065      -0.000011897       0.000467244            12
       9      -0.56913249       0.000001838       0.000105464            13
      10      -0.56913255       0.000000060       0.000024485            15
      11      -0.56913248      -0.000000071       0.000005971            16
      12      -0.56913248      -0.000000001       0.000001652            18
      13      -0.56913248       0.000000004       0.000000340            19

    CHF Iterations converged


    Iter     Energy [mEh]          dE [mEh]         Residual      Time [s]
       1      -0.82497278       0.824972778       4.565961290             2
       2      -0.95729119       0.132318416       1.556880450             3
       3      -0.98380954       0.026518349       0.331776457             5
       4      -0.98223926      -0.001570284       0.103892585             6
       5      -0.98103646      -0.001202804       0.021128053             8
       6      -0.98116148       0.000125026       0.005072213             9
       7      -0.98119538       0.000033899       0.001222444            10
       8      -0.98119131      -0.000004072       0.000363986            12
       9      -0.98118900      -0.000002308       0.000070852            13
      10      -0.98118944       0.000000444       0.000014798            15
      11      -0.98118945       0.000000001       0.000003898            16
      12      -0.98118943      -0.000000013       0.000001073            18
      13      -0.98118943      -0.000000001       0.000000248            19

    CHF Iterations converged

    Ind20,r (A<-B)      =    -0.000569132480 [Eh]
    Ind20,r (B<-A)      =    -0.000981189431 [Eh]
    Ind20,r             =    -0.001550321911 [Eh]
    Exch-Ind20,r (A<-B) =     0.000512690088 [Eh]
    Exch-Ind20,r (B<-A) =     0.000497172521 [Eh]
    Exch-Ind20,r        =     0.001009862609 [Eh]
    Disp20              =    -0.008613667724 [Eh]
    Disp20 (SS)         =    -0.004306833862 [Eh]
    Disp20 (OS)         =    -0.004306833862 [Eh]
    Exch-Disp20         =     0.000705490132 [Eh]
    Exch-Disp20 (SS)    =     0.000466118917 [Eh]
    Exch-Disp20 (OS)    =     0.000239371216 [Eh]

    SAPT Results 
  --------------------------------------------------------------------------------------------------------
    Electrostatics                 -2.50048874 [mEh]      -1.56908037 [kcal/mol]      -6.56503228 [kJ/mol]
      Elst10,r                     -2.50048874 [mEh]      -1.56908037 [kcal/mol]      -6.56503228 [kJ/mol]

    Exchange                        6.78192596 [mEh]       4.25572279 [kcal/mol]      17.80594416 [kJ/mol]
      Exch10                        6.78192596 [mEh]       4.25572279 [kcal/mol]      17.80594416 [kJ/mol]
      Exch10(S^2)                   6.76911519 [mEh]       4.24768391 [kcal/mol]      17.77230949 [kJ/mol]

    Induction                      -1.06577483 [mEh]      -0.66878380 [kcal/mol]      -2.79819143 [kJ/mol]
      Ind20,r                      -1.55032191 [mEh]      -0.97284169 [kcal/mol]      -4.07036962 [kJ/mol]
      Exch-Ind20,r                  1.00986261 [mEh]       0.63369835 [kcal/mol]       2.65139391 [kJ/mol]
      delta HF,r (2)               -0.52531553 [mEh]      -0.32964047 [kcal/mol]      -1.37921572 [kJ/mol]

    Dispersion                     -7.90817759 [mEh]      -4.96245636 [kcal/mol]     -20.76291741 [kJ/mol]
      Disp20                       -8.61366772 [mEh]      -5.40515810 [kcal/mol]     -22.61518149 [kJ/mol]
      Exch-Disp20                   0.70549013 [mEh]       0.44270174 [kcal/mol]       1.85226409 [kJ/mol]
      Disp20 (SS)                  -4.30683386 [mEh]      -2.70257905 [kcal/mol]     -11.30759075 [kJ/mol]
      Disp20 (OS)                  -4.30683386 [mEh]      -2.70257905 [kcal/mol]     -11.30759075 [kJ/mol]
      Exch-Disp20 (SS)              0.46611892 [mEh]       0.29249404 [kcal/mol]       1.22379505 [kJ/mol]
      Exch-Disp20 (OS)              0.23937122 [mEh]       0.15020771 [kcal/mol]       0.62846904 [kJ/mol]

  Total HF                          3.21566240 [mEh]       2.01785862 [kcal/mol]       8.44272046 [kJ/mol]
  Total SAPT0                      -4.69251520 [mEh]      -2.94459774 [kcal/mol]     -12.32019695 [kJ/mol]

  Special recipe for scaled SAPT0 (see Manual):
    Electrostatics sSAPT0          -2.50048874 [mEh]      -1.56908037 [kcal/mol]      -6.56503228 [kJ/mol]
    Exchange sSAPT0                 6.78192596 [mEh]       4.25572279 [kcal/mol]      17.80594416 [kJ/mol]
    Induction sSAPT0               -1.06003038 [mEh]      -0.66517910 [kcal/mol]      -2.78310937 [kJ/mol]
    Dispersion sSAPT0              -7.90416452 [mEh]      -4.95993812 [kcal/mol]     -20.75238108 [kJ/mol]
  Total sSAPT0                     -4.68275767 [mEh]      -2.93847480 [kcal/mol]     -12.29457857 [kJ/mol]
  --------------------------------------------------------------------------------------------------------

*** tstop() called on r282 at Fri Sep 10 22:57:50 2021
Module time:
	user time   =     152.79 seconds =       2.55 minutes
	system time =      24.19 seconds =       0.40 minutes
	total time  =        177 seconds =       2.95 minutes
Total time:
	user time   =     355.22 seconds =       5.92 minutes
	system time =      27.82 seconds =       0.46 minutes
	total time  =        383 seconds =       6.38 minutes

    Psi4 stopped on: Friday, 10 September 2021 10:57PM
    Psi4 wall time for execution: 0:06:23.51

*** Psi4 exiting successfully. Buy a developer a beer!
