
    -----------------------------------------------------------------------
          Psi4: An Open-Source Ab Initio Electronic Structure Package
                               Psi4 1.3.2 release

                         Git: Rev {HEAD} ecbda83 


    R. M. Parrish, L. A. Burns, D. G. A. Smith, A. C. Simmonett,
    A. E. DePrince III, E. G. Hohenstein, U. Bozkaya, A. Yu. Sokolov,
    R. Di Remigio, R. M. Richard, J. F. Gonthier, A. M. James,
    H. R. McAlexander, A. Kumar, M. Saitow, X. Wang, B. P. Pritchard,
    P. Verma, H. F. Schaefer III, K. Patkowski, R. A. King, E. F. Valeev,
    F. A. Evangelista, J. M. Turney, T. D. Crawford, and C. D. Sherrill,
    J. Chem. Theory Comput. 13(7) pp 3185--3197 (2017).
    (doi: 10.1021/acs.jctc.7b00174)


                         Additional Contributions by
    P. Kraus, H. Kruse, M. H. Lechner, M. C. Schieber, R. A. Shaw,
    A. Alenaizan, R. Galvelis, Z. L. Glick, S. Lehtola, and J. P. Misiewicz

    -----------------------------------------------------------------------


    Psi4 started on: Friday, 10 September 2021 11:08PM

    Process ID: 57308
    Host:       r282
    PSIDATADIR: /home/r08543048/miniconda3/share/psi4
    Memory:     500.0 MiB
    Threads:    1
    
  ==> Input File <==

--------------------------------------------------------------------------
# Any line starting with the # character is a comment line
#! Sample  computation

memory 22 gb

molecule Dimer {
0 1
 C 2.465143   -0.872468   -0.150185
 C 1.304268   -1.304345    0.731748
 H 3.294977   -0.539307    0.483406
 H 2.817825   -1.768556   -0.669422
 O 0.844851   -0.295482    1.633702
 H 0.439103   -1.547531    0.113644
 H 1.578156   -2.206847    1.287094
 H 1.575702   -0.079267    2.223056
 C 2.134724    0.205604   -1.181595
 H 2.941981    0.237865   -1.916878
 H 1.236220   -0.095822   -1.728227
 C 1.941656    1.602682   -0.599553
 H 2.835488    1.914624   -0.055753
 H 1.765499    2.330499   -1.391904
 H 1.102013    1.633467    0.090432
    
    
    
 --
0 1
 C  -1.840591    1.894516    0.647174
 H  -1.156113    1.597580    1.442109
 H  -2.820914    2.071988    1.092300
 H  -1.487820    2.836974    0.227699
 C  -1.919953    0.802818   -0.411988
 H  -2.589600    1.111542   -1.220183
 H  -0.934361    0.659073   -0.864081
 C  -2.400998   -0.525069    0.158816
 H  -3.386126   -0.383755    0.612285
 H  -1.727765   -0.824947    0.965895
 C  -2.477341   -1.619033   -0.899168
 H  -1.502817   -1.778845   -1.364599
 H  -2.805925   -2.568685   -0.476953
 H  -3.175784   -1.344416   -1.691028





units angstrom

no_reorient
symmetry c1
}

set globals{
  basis jun-cc-pvtz
}

energy('sapt0')


--------------------------------------------------------------------------

  Memory set to  20.489 GiB by Python driver.

  //>>>>>>>>>>>>>>>>>>>>>>>>>>>>>>>>>>>//
  //              Dimer HF             //
  //<<<<<<<<<<<<<<<<<<<<<<<<<<<<<<<<<<<//


*** tstart() called on r282
*** at Fri Sep 10 23:08:57 2021

   => Loading Basis Set <=

    Name: JUN-CC-PVTZ
    Role: ORBITAL
    Keyword: BASIS
    atoms 1-2, 9, 12, 16, 20, 23, 26                         entry C          line   217 file /home/r08543048/miniconda3/share/psi4/basis/jun-cc-pvtz.gbs 
    atoms 3-4, 6-8, 10-11, 13-15, 17-19, 21-22, 24-25, 27-29 entry H          line    36 file /home/r08543048/miniconda3/share/psi4/basis/jun-cc-pvtz.gbs 
    atoms 5                                                  entry O          line   305 file /home/r08543048/miniconda3/share/psi4/basis/jun-cc-pvtz.gbs 


         ---------------------------------------------------------
                                   SCF
               by Justin Turney, Rob Parrish, Andy Simmonett
                          and Daniel G. A. Smith
                              RHF Reference
                        1 Threads,  20980 MiB Core
         ---------------------------------------------------------

  ==> Geometry <==

    Molecular point group: c1
    Full point group: C1

    Geometry (in Angstrom), charge = 0, multiplicity = 1:

       Center              X                  Y                   Z               Mass       
    ------------   -----------------  -----------------  -----------------  -----------------
         C            2.450157897491    -0.863052361260    -0.171452817954    12.000000000000
         C            1.289282897491    -1.294929361260     0.710480182046    12.000000000000
         H            3.279991897491    -0.529891361260     0.462138182046     1.007825032230
         H            2.802839897491    -1.759140361260    -0.690689817954     1.007825032230
         O            0.829865897491    -0.286066361260     1.612434182046    15.994914619570
         H            0.424117897491    -1.538115361260     0.092376182046     1.007825032230
         H            1.563170897491    -2.197431361260     1.265826182046     1.007825032230
         H            1.560716897491    -0.069851361260     2.201788182046     1.007825032230
         C            2.119738897491     0.215019638740    -1.202862817954    12.000000000000
         H            2.926995897491     0.247280638740    -1.938145817954     1.007825032230
         H            1.221234897491    -0.086406361260    -1.749494817954     1.007825032230
         C            1.926670897491     1.612097638740    -0.620820817954    12.000000000000
         H            2.820502897491     1.924039638740    -0.077020817954     1.007825032230
         H            1.750513897491     2.339914638740    -1.413171817954     1.007825032230
         H            1.087027897491     1.642882638740     0.069164182046     1.007825032230
         C           -1.855576102509     1.903931638740     0.625906182046    12.000000000000
         H           -1.171098102509     1.606995638740     1.420841182046     1.007825032230
         H           -2.835899102509     2.081403638740     1.071032182046     1.007825032230
         H           -1.502805102509     2.846389638740     0.206431182046     1.007825032230
         C           -1.934938102509     0.812233638740    -0.433255817954    12.000000000000
         H           -2.604585102509     1.120957638740    -1.241450817954     1.007825032230
         H           -0.949346102509     0.668488638740    -0.885348817954     1.007825032230
         C           -2.415983102509    -0.515653361260     0.137548182046    12.000000000000
         H           -3.401111102509    -0.374339361260     0.591017182046     1.007825032230
         H           -1.742750102509    -0.815531361260     0.944627182046     1.007825032230
         C           -2.492326102509    -1.609617361260    -0.920435817954    12.000000000000
         H           -1.517802102509    -1.769429361260    -1.385866817954     1.007825032230
         H           -2.820910102509    -2.559269361260    -0.498220817954     1.007825032230
         H           -3.190769102509    -1.335000361260    -1.712295817954     1.007825032230

  Running in c1 symmetry.

  Rotational constants: A =      0.05350  B =      0.02598  C =      0.02299 [cm^-1]
  Rotational constants: A =   1603.87466  B =    778.98381  C =    689.27287 [MHz]
  Nuclear repulsion =  495.170983296883946

  Charge       = 0
  Multiplicity = 1
  Electrons    = 76
  Nalpha       = 38
  Nbeta        = 38

  ==> Algorithm <==

  SCF Algorithm Type is DF.
  DIIS enabled.
  MOM disabled.
  Fractional occupation disabled.
  Guess Type is SAD.
  Energy threshold   = 1.00e-08
  Density threshold  = 1.00e-08
  Integral threshold = 0.00e+00

  ==> Primary Basis <==

  Basis Set: JUN-CC-PVTZ
    Blend: JUN-CC-PVTZ
    Number of shells: 237
    Number of basis function: 631
    Number of Cartesian functions: 705
    Spherical Harmonics?: true
    Max angular momentum: 3

   => Loading Basis Set <=

    Name: (JUN-CC-PVTZ AUX)
    Role: JKFIT
    Keyword: DF_BASIS_SCF
    atoms 1-2, 9, 12, 16, 20, 23, 26                         entry C          line   152 file /home/r08543048/miniconda3/share/psi4/basis/jun-cc-pvtz-jkfit.gbs 
    atoms 3-4, 6-8, 10-11, 13-15, 17-19, 21-22, 24-25, 27-29 entry H          line    70 file /home/r08543048/miniconda3/share/psi4/basis/jun-cc-pvtz-jkfit.gbs 
    atoms 5                                                  entry O          line   272 file /home/r08543048/miniconda3/share/psi4/basis/jun-cc-pvtz-jkfit.gbs 

  ==> Pre-Iterations <==

   -------------------------------------------------------
    Irrep   Nso     Nmo     Nalpha   Nbeta   Ndocc  Nsocc
   -------------------------------------------------------
     A        631     631       0       0       0       0
   -------------------------------------------------------
    Total     631     631      38      38      38       0
   -------------------------------------------------------

  ==> Integral Setup <==

  ==> DiskDFJK: Density-Fitted J/K Matrices <==

    J tasked:                  Yes
    K tasked:                  Yes
    wK tasked:                  No
    OpenMP threads:              1
    Integrals threads:           1
    Memory [MiB]:            15735
    Algorithm:                Core
    Integral Cache:           SAVE
    Schwarz Cutoff:          1E-12
    Fitting Condition:       1E-10

   => Auxiliary Basis Set <=

  Basis Set: (JUN-CC-PVTZ AUX)
    Blend: JUN-CC-PVTZ-JKFIT
    Number of shells: 461
    Number of basis function: 1455
    Number of Cartesian functions: 1744
    Spherical Harmonics?: true
    Max angular momentum: 4

  Minimum eigenvalue in the overlap matrix is 3.4255506248E-05.
  Using Symmetric Orthogonalization.

  SCF Guess: Superposition of Atomic Densities via on-the-fly atomic UHF.

  ==> Iterations <==

                           Total Energy        Delta E     RMS |[F,P]|

   @DF-RHF iter SAD:  -388.53300625094414   -3.88533e+02   0.00000e+00 
   @DF-RHF iter   1:  -389.15564688371393   -6.22641e-01   1.35094e-03 DIIS
   @DF-RHF iter   2:  -389.49671074235977   -3.41064e-01   6.82625e-04 DIIS
   @DF-RHF iter   3:  -389.58309817855229   -8.63874e-02   1.24830e-04 DIIS
   @DF-RHF iter   4:  -389.58839633743713   -5.29816e-03   4.28981e-05 DIIS
   @DF-RHF iter   5:  -389.58880545982885   -4.09122e-04   9.95214e-06 DIIS
   @DF-RHF iter   6:  -389.58883426245012   -2.88026e-05   2.59450e-06 DIIS
   @DF-RHF iter   7:  -389.58883641925848   -2.15681e-06   6.05200e-07 DIIS
   @DF-RHF iter   8:  -389.58883656120764   -1.41949e-07   1.62377e-07 DIIS
   @DF-RHF iter   9:  -389.58883657350475   -1.22971e-08   4.41182e-08 DIIS
   @DF-RHF iter  10:  -389.58883657458620   -1.08145e-09   1.08777e-08 DIIS
   @DF-RHF iter  11:  -389.58883657463673   -5.05338e-11   2.83235e-09 DIIS
  Energy and wave function converged.


  ==> Post-Iterations <==

    Orbital Energies [Eh]
    ---------------------

    Doubly Occupied:                                                      

       1A    -20.557259     2A    -11.273446     3A    -11.222553  
       4A    -11.218032     5A    -11.203618     6A    -11.203356  
       7A    -11.202795     8A    -11.202629     9A    -11.194956  
      10A     -1.358405    11A     -1.070273    12A     -1.062536  
      13A     -0.975679    14A     -0.971127    15A     -0.868304  
      16A     -0.851692    17A     -0.793136    18A     -0.778527  
      19A     -0.680932    20A     -0.644491    21A     -0.634678  
      22A     -0.622095    23A     -0.583590    24A     -0.575765  
      25A     -0.567284    26A     -0.564809    27A     -0.556353  
      28A     -0.537974    29A     -0.507539    30A     -0.504160  
      31A     -0.497056    32A     -0.485357    33A     -0.475507  
      34A     -0.463547    35A     -0.458897    36A     -0.450368  
      37A     -0.446726    38A     -0.428042  

    Virtual:                                                              

      39A      0.048273    40A      0.051689    41A      0.055052  
      42A      0.057200    43A      0.070312    44A      0.072796  
      45A      0.073747    46A      0.078062    47A      0.082972  
      48A      0.102640    49A      0.106689    50A      0.108759  
      51A      0.111471    52A      0.112353    53A      0.121316  
      54A      0.124214    55A      0.140466    56A      0.142858  
      57A      0.144913    58A      0.146937    59A      0.152492  
      60A      0.153686    61A      0.165549    62A      0.178291  
      63A      0.182882    64A      0.186356    65A      0.193339  
      66A      0.199324    67A      0.209429    68A      0.211827  
      69A      0.215784    70A      0.225677    71A      0.237007  
      72A      0.241116    73A      0.250873    74A      0.258373  
      75A      0.265494    76A      0.277394    77A      0.280321  
      78A      0.284570    79A      0.286608    80A      0.296741  
      81A      0.310327    82A      0.313806    83A      0.316154  
      84A      0.321616    85A      0.324620    86A      0.326404  
      87A      0.328729    88A      0.331654    89A      0.341170  
      90A      0.345877    91A      0.347255    92A      0.351402  
      93A      0.354035    94A      0.360380    95A      0.366856  
      96A      0.373513    97A      0.379206    98A      0.384628  
      99A      0.386444   100A      0.391010   101A      0.399316  
     102A      0.400883   103A      0.410335   104A      0.411298  
     105A      0.416294   106A      0.423629   107A      0.431080  
     108A      0.434824   109A      0.440731   110A      0.446013  
     111A      0.452251   112A      0.457692   113A      0.462148  
     114A      0.468428   115A      0.481475   116A      0.487736  
     117A      0.497617   118A      0.505119   119A      0.507118  
     120A      0.518747   121A      0.522941   122A      0.530594  
     123A      0.538021   124A      0.542158   125A      0.544802  
     126A      0.550560   127A      0.555926   128A      0.566187  
     129A      0.571572   130A      0.576386   131A      0.579879  
     132A      0.588010   133A      0.597924   134A      0.608944  
     135A      0.611557   136A      0.617294   137A      0.623495  
     138A      0.633469   139A      0.636850   140A      0.643105  
     141A      0.656576   142A      0.666535   143A      0.676701  
     144A      0.685543   145A      0.687288   146A      0.694888  
     147A      0.714485   148A      0.720237   149A      0.728116  
     150A      0.733255   151A      0.743391   152A      0.753794  
     153A      0.754687   154A      0.765394   155A      0.777025  
     156A      0.781495   157A      0.789774   158A      0.796084  
     159A      0.801968   160A      0.810114   161A      0.816431  
     162A      0.822287   163A      0.826094   164A      0.830301  
     165A      0.845156   166A      0.849333   167A      0.853230  
     168A      0.856844   169A      0.865578   170A      0.871460  
     171A      0.878173   172A      0.880378   173A      0.891130  
     174A      0.894216   175A      0.898147   176A      0.901169  
     177A      0.903936   178A      0.911550   179A      0.928813  
     180A      0.930989   181A      0.935652   182A      0.941230  
     183A      0.963006   184A      0.970315   185A      0.981382  
     186A      0.984701   187A      0.995278   188A      1.009224  
     189A      1.015991   190A      1.027019   191A      1.031752  
     192A      1.033788   193A      1.055738   194A      1.064926  
     195A      1.073683   196A      1.087113   197A      1.100770  
     198A      1.122798   199A      1.130441   200A      1.146738  
     201A      1.157569   202A      1.167246   203A      1.177041  
     204A      1.206336   205A      1.209271   206A      1.216083  
     207A      1.220483   208A      1.228716   209A      1.233555  
     210A      1.246896   211A      1.269230   212A      1.275201  
     213A      1.281586   214A      1.286227   215A      1.293120  
     216A      1.308925   217A      1.316438   218A      1.331606  
     219A      1.344741   220A      1.360734   221A      1.361581  
     222A      1.367453   223A      1.380344   224A      1.388591  
     225A      1.392790   226A      1.402460   227A      1.407349  
     228A      1.416474   229A      1.432527   230A      1.438960  
     231A      1.447859   232A      1.459939   233A      1.470823  
     234A      1.475984   235A      1.477639   236A      1.488354  
     237A      1.493322   238A      1.504527   239A      1.513389  
     240A      1.517615   241A      1.531243   242A      1.538077  
     243A      1.543632   244A      1.551629   245A      1.560111  
     246A      1.568418   247A      1.572844   248A      1.577353  
     249A      1.583039   250A      1.597314   251A      1.601255  
     252A      1.607958   253A      1.618167   254A      1.624398  
     255A      1.628495   256A      1.633239   257A      1.638022  
     258A      1.649105   259A      1.658654   260A      1.665278  
     261A      1.670037   262A      1.684127   263A      1.698937  
     264A      1.702162   265A      1.708518   266A      1.726567  
     267A      1.730676   268A      1.734929   269A      1.746918  
     270A      1.755491   271A      1.765263   272A      1.779254  
     273A      1.790503   274A      1.803729   275A      1.811196  
     276A      1.829576   277A      1.833532   278A      1.840949  
     279A      1.848781   280A      1.861617   281A      1.871323  
     282A      1.895350   283A      1.904951   284A      1.916781  
     285A      1.920133   286A      1.934757   287A      1.939107  
     288A      1.955884   289A      1.969511   290A      1.974332  
     291A      2.001319   292A      2.009063   293A      2.018943  
     294A      2.031050   295A      2.040493   296A      2.051808  
     297A      2.078343   298A      2.097560   299A      2.136580  
     300A      2.162044   301A      2.200104   302A      2.293146  
     303A      2.374348   304A      2.486240   305A      2.503837  
     306A      2.582882   307A      2.622305   308A      2.753866  
     309A      2.775470   310A      2.784397   311A      2.800659  
     312A      2.821379   313A      2.832789   314A      2.840374  
     315A      2.849806   316A      2.869043   317A      2.877108  
     318A      2.885753   319A      2.890661   320A      2.896026  
     321A      2.920074   322A      2.926484   323A      2.932860  
     324A      2.948733   325A      2.951684   326A      2.966124  
     327A      2.981718   328A      2.999948   329A      3.015167  
     330A      3.019076   331A      3.028823   332A      3.046738  
     333A      3.055547   334A      3.071596   335A      3.076169  
     336A      3.096465   337A      3.107608   338A      3.116292  
     339A      3.134032   340A      3.140958   341A      3.146631  
     342A      3.161146   343A      3.166396   344A      3.175357  
     345A      3.180786   346A      3.190035   347A      3.204542  
     348A      3.208620   349A      3.218655   350A      3.235546  
     351A      3.254310   352A      3.263913   353A      3.273962  
     354A      3.288356   355A      3.293802   356A      3.298501  
     357A      3.308197   358A      3.322007   359A      3.332250  
     360A      3.348527   361A      3.351651   362A      3.361142  
     363A      3.367805   364A      3.378050   365A      3.395013  
     366A      3.409189   367A      3.415017   368A      3.420107  
     369A      3.424269   370A      3.431262   371A      3.437100  
     372A      3.445752   373A      3.447315   374A      3.461072  
     375A      3.463966   376A      3.473641   377A      3.478538  
     378A      3.490876   379A      3.496992   380A      3.499092  
     381A      3.502227   382A      3.511306   383A      3.520881  
     384A      3.527355   385A      3.533173   386A      3.537087  
     387A      3.544957   388A      3.562227   389A      3.573951  
     390A      3.578712   391A      3.583403   392A      3.588251  
     393A      3.594486   394A      3.605647   395A      3.608111  
     396A      3.624514   397A      3.631562   398A      3.640938  
     399A      3.645662   400A      3.654485   401A      3.669821  
     402A      3.673011   403A      3.681125   404A      3.695154  
     405A      3.711513   406A      3.717366   407A      3.729782  
     408A      3.752309   409A      3.754181   410A      3.763733  
     411A      3.776750   412A      3.781940   413A      3.795958  
     414A      3.805931   415A      3.807598   416A      3.821830  
     417A      3.832585   418A      3.846470   419A      3.849478  
     420A      3.855428   421A      3.872508   422A      3.878979  
     423A      3.891576   424A      3.911627   425A      3.933165  
     426A      3.939195   427A      3.942791   428A      3.957603  
     429A      3.962482   430A      3.963352   431A      3.975347  
     432A      3.979958   433A      3.990435   434A      3.995185  
     435A      4.004099   436A      4.008913   437A      4.021710  
     438A      4.037346   439A      4.050447   440A      4.065232  
     441A      4.098674   442A      4.106405   443A      4.117342  
     444A      4.136879   445A      4.170527   446A      4.180645  
     447A      4.187893   448A      4.203137   449A      4.204730  
     450A      4.215740   451A      4.228574   452A      4.236715  
     453A      4.245335   454A      4.255215   455A      4.264713  
     456A      4.274989   457A      4.279566   458A      4.291288  
     459A      4.295463   460A      4.300909   461A      4.303083  
     462A      4.323900   463A      4.329790   464A      4.344533  
     465A      4.359765   466A      4.362625   467A      4.366811  
     468A      4.391778   469A      4.393779   470A      4.394936  
     471A      4.402035   472A      4.409738   473A      4.419668  
     474A      4.426607   475A      4.434864   476A      4.447041  
     477A      4.457632   478A      4.470416   479A      4.471346  
     480A      4.479948   481A      4.489214   482A      4.493897  
     483A      4.505957   484A      4.510798   485A      4.524121  
     486A      4.532485   487A      4.536620   488A      4.543946  
     489A      4.551457   490A      4.556260   491A      4.561039  
     492A      4.565443   493A      4.572850   494A      4.582953  
     495A      4.592112   496A      4.606381   497A      4.617037  
     498A      4.631591   499A      4.647957   500A      4.650497  
     501A      4.655385   502A      4.673773   503A      4.683468  
     504A      4.689786   505A      4.703104   506A      4.716843  
     507A      4.731485   508A      4.737381   509A      4.753050  
     510A      4.762577   511A      4.776833   512A      4.803821  
     513A      4.813940   514A      4.837355   515A      4.843844  
     516A      4.847971   517A      4.854127   518A      4.868754  
     519A      4.885275   520A      4.911374   521A      4.925840  
     522A      4.935787   523A      4.942579   524A      4.967230  
     525A      4.972224   526A      5.034927   527A      5.048692  
     528A      5.060018   529A      5.070760   530A      5.084127  
     531A      5.100393   532A      5.123892   533A      5.138187  
     534A      5.142043   535A      5.160164   536A      5.177256  
     537A      5.191172   538A      5.206549   539A      5.221841  
     540A      5.253926   541A      5.267273   542A      5.273619  
     543A      5.282512   544A      5.292325   545A      5.309629  
     546A      5.313592   547A      5.325099   548A      5.327569  
     549A      5.335378   550A      5.357099   551A      5.370179  
     552A      5.374675   553A      5.378054   554A      5.386116  
     555A      5.403635   556A      5.428783   557A      5.447195  
     558A      5.451167   559A      5.473169   560A      5.484740  
     561A      5.501245   562A      5.513043   563A      5.549684  
     564A      5.557486   565A      5.571945   566A      5.592076  
     567A      5.606839   568A      5.639605   569A      5.652226  
     570A      5.669072   571A      5.671749   572A      5.684060  
     573A      5.763240   574A      5.768374   575A      5.775502  
     576A      5.789298   577A      5.797892   578A      5.805651  
     579A      5.811385   580A      5.821543   581A      5.840967  
     582A      5.858265   583A      5.863114   584A      5.874520  
     585A      5.879026   586A      5.914571   587A      5.926374  
     588A      5.936935   589A      5.939375   590A      5.973751  
     591A      5.979143   592A      5.983378   593A      6.009014  
     594A      6.036445   595A      6.045298   596A      6.076035  
     597A      6.105590   598A      6.112894   599A      6.206225  
     600A      6.218312   601A      6.321991   602A      6.444426  
     603A      6.505520   604A      6.512630   605A      6.529974  
     606A      6.556542   607A      6.564245   608A      6.580974  
     609A      6.602139   610A      6.612399   611A      6.619692  
     612A      6.634210   613A      6.694103   614A      6.955622  
     615A      7.079378   616A      7.254955   617A      7.336506  
     618A      7.467879   619A      7.546956   620A      7.667348  
     621A      7.874384   622A      8.223736   623A     13.635278  
     624A     13.826070   625A     13.885946   626A     14.061649  
     627A     14.237982   628A     14.360304   629A     14.580223  
     630A     14.714127   631A     14.887213  

    Final Occupation by Irrep:
              A 
    DOCC [    38 ]

  @DF-RHF Final Energy:  -389.58883657463673

   => Energetics <=

    Nuclear Repulsion Energy =            495.1709832968839464
    One-Electron Energy =               -1510.1326541275245745
    Two-Electron Energy =                 625.3728342560038982
    Total Energy =                       -389.5888365746367299

Computation Completed


Properties will be evaluated at   0.000000,   0.000000,   0.000000 [a0]

Properties computed using the SCF density matrix

  Nuclear Dipole Moment: [e a0]
     X:    -2.1522      Y:     1.3523      Z:    -3.0545

  Electronic Dipole Moment: [e a0]
     X:     2.8552      Y:    -1.6447      Z:     3.0761

  Dipole Moment: [e a0]
     X:     0.7031      Y:    -0.2924      Z:     0.0216     Total:     0.7618

  Dipole Moment: [D]
     X:     1.7870      Y:    -0.7432      Z:     0.0549     Total:     1.9362


*** tstop() called on r282 at Fri Sep 10 23:11:34 2021
Module time:
	user time   =     154.22 seconds =       2.57 minutes
	system time =       2.56 seconds =       0.04 minutes
	total time  =        157 seconds =       2.62 minutes
Total time:
	user time   =     154.22 seconds =       2.57 minutes
	system time =       2.56 seconds =       0.04 minutes
	total time  =        157 seconds =       2.62 minutes

  //>>>>>>>>>>>>>>>>>>>>>>>>>>>>>>>>>>>//
  //            Monomer A HF           //
  //<<<<<<<<<<<<<<<<<<<<<<<<<<<<<<<<<<<//


*** tstart() called on r282
*** at Fri Sep 10 23:11:34 2021

   => Loading Basis Set <=

    Name: JUN-CC-PVTZ
    Role: ORBITAL
    Keyword: BASIS
    atoms 1-2, 9, 12, 16, 20, 23, 26                         entry C          line   217 file /home/r08543048/miniconda3/share/psi4/basis/jun-cc-pvtz.gbs 
    atoms 3-4, 6-8, 10-11, 13-15, 17-19, 21-22, 24-25, 27-29 entry H          line    36 file /home/r08543048/miniconda3/share/psi4/basis/jun-cc-pvtz.gbs 
    atoms 5                                                  entry O          line   305 file /home/r08543048/miniconda3/share/psi4/basis/jun-cc-pvtz.gbs 


         ---------------------------------------------------------
                                   SCF
               by Justin Turney, Rob Parrish, Andy Simmonett
                          and Daniel G. A. Smith
                              RHF Reference
                        1 Threads,  20980 MiB Core
         ---------------------------------------------------------

  ==> Geometry <==

    Molecular point group: c1
    Full point group: C1

    Geometry (in Angstrom), charge = 0, multiplicity = 1:

       Center              X                  Y                   Z               Mass       
    ------------   -----------------  -----------------  -----------------  -----------------
         C            2.450157897491    -0.863052361260    -0.171452817954    12.000000000000
         C            1.289282897491    -1.294929361260     0.710480182046    12.000000000000
         H            3.279991897491    -0.529891361260     0.462138182046     1.007825032230
         H            2.802839897491    -1.759140361260    -0.690689817954     1.007825032230
         O            0.829865897491    -0.286066361260     1.612434182046    15.994914619570
         H            0.424117897491    -1.538115361260     0.092376182046     1.007825032230
         H            1.563170897491    -2.197431361260     1.265826182046     1.007825032230
         H            1.560716897491    -0.069851361260     2.201788182046     1.007825032230
         C            2.119738897491     0.215019638740    -1.202862817954    12.000000000000
         H            2.926995897491     0.247280638740    -1.938145817954     1.007825032230
         H            1.221234897491    -0.086406361260    -1.749494817954     1.007825032230
         C            1.926670897491     1.612097638740    -0.620820817954    12.000000000000
         H            2.820502897491     1.924039638740    -0.077020817954     1.007825032230
         H            1.750513897491     2.339914638740    -1.413171817954     1.007825032230
         H            1.087027897491     1.642882638740     0.069164182046     1.007825032230
      Gh(C)          -1.855576102509     1.903931638740     0.625906182046    12.000000000000
      Gh(H)          -1.171098102509     1.606995638740     1.420841182046     1.007825032230
      Gh(H)          -2.835899102509     2.081403638740     1.071032182046     1.007825032230
      Gh(H)          -1.502805102509     2.846389638740     0.206431182046     1.007825032230
      Gh(C)          -1.934938102509     0.812233638740    -0.433255817954    12.000000000000
      Gh(H)          -2.604585102509     1.120957638740    -1.241450817954     1.007825032230
      Gh(H)          -0.949346102509     0.668488638740    -0.885348817954     1.007825032230
      Gh(C)          -2.415983102509    -0.515653361260     0.137548182046    12.000000000000
      Gh(H)          -3.401111102509    -0.374339361260     0.591017182046     1.007825032230
      Gh(H)          -1.742750102509    -0.815531361260     0.944627182046     1.007825032230
      Gh(C)          -2.492326102509    -1.609617361260    -0.920435817954    12.000000000000
      Gh(H)          -1.517802102509    -1.769429361260    -1.385866817954     1.007825032230
      Gh(H)          -2.820910102509    -2.559269361260    -0.498220817954     1.007825032230
      Gh(H)          -3.190769102509    -1.335000361260    -1.712295817954     1.007825032230

  Running in c1 symmetry.

  Rotational constants: A =      0.05350  B =      0.02598  C =      0.02299 [cm^-1]
  Rotational constants: A =   1603.87466  B =    778.98381  C =    689.27287 [MHz]
  Nuclear repulsion =  192.095013182081260

  Charge       = 0
  Multiplicity = 1
  Electrons    = 42
  Nalpha       = 21
  Nbeta        = 21

  ==> Algorithm <==

  SCF Algorithm Type is DF.
  DIIS enabled.
  MOM disabled.
  Fractional occupation disabled.
  Guess Type is SAD.
  Energy threshold   = 1.00e-08
  Density threshold  = 1.00e-08
  Integral threshold = 0.00e+00

  ==> Primary Basis <==

  Basis Set: JUN-CC-PVTZ
    Blend: JUN-CC-PVTZ
    Number of shells: 237
    Number of basis function: 631
    Number of Cartesian functions: 705
    Spherical Harmonics?: true
    Max angular momentum: 3

   => Loading Basis Set <=

    Name: (JUN-CC-PVTZ AUX)
    Role: JKFIT
    Keyword: DF_BASIS_SCF
    atoms 1-2, 9, 12, 16, 20, 23, 26                         entry C          line   152 file /home/r08543048/miniconda3/share/psi4/basis/jun-cc-pvtz-jkfit.gbs 
    atoms 3-4, 6-8, 10-11, 13-15, 17-19, 21-22, 24-25, 27-29 entry H          line    70 file /home/r08543048/miniconda3/share/psi4/basis/jun-cc-pvtz-jkfit.gbs 
    atoms 5                                                  entry O          line   272 file /home/r08543048/miniconda3/share/psi4/basis/jun-cc-pvtz-jkfit.gbs 

  ==> Pre-Iterations <==

   -------------------------------------------------------
    Irrep   Nso     Nmo     Nalpha   Nbeta   Ndocc  Nsocc
   -------------------------------------------------------
     A        631     631       0       0       0       0
   -------------------------------------------------------
    Total     631     631      21      21      21       0
   -------------------------------------------------------

  ==> Integral Setup <==

  ==> DiskDFJK: Density-Fitted J/K Matrices <==

    J tasked:                  Yes
    K tasked:                  Yes
    wK tasked:                  No
    OpenMP threads:              1
    Integrals threads:           1
    Memory [MiB]:            15735
    Algorithm:                Core
    Integral Cache:           LOAD
    Schwarz Cutoff:          1E-12
    Fitting Condition:       1E-10

   => Auxiliary Basis Set <=

  Basis Set: (JUN-CC-PVTZ AUX)
    Blend: JUN-CC-PVTZ-JKFIT
    Number of shells: 461
    Number of basis function: 1455
    Number of Cartesian functions: 1744
    Spherical Harmonics?: true
    Max angular momentum: 4

  Minimum eigenvalue in the overlap matrix is 3.4255506248E-05.
  Using Symmetric Orthogonalization.

  SCF Guess: Superposition of Atomic Densities via on-the-fly atomic UHF.

  ==> Iterations <==

                           Total Energy        Delta E     RMS |[F,P]|

   @DF-RHF iter SAD:  -231.56036263670069   -2.31560e+02   0.00000e+00 
   @DF-RHF iter   1:  -232.00841600854824   -4.48053e-01   1.00280e-03 DIIS
   @DF-RHF iter   2:  -232.18533556050426   -1.76920e-01   5.31096e-04 DIIS
   @DF-RHF iter   3:  -232.23332978985451   -4.79942e-02   9.10669e-05 DIIS
   @DF-RHF iter   4:  -232.23605988752183   -2.73010e-03   3.07828e-05 DIIS
   @DF-RHF iter   5:  -232.23627648653490   -2.16599e-04   7.83720e-06 DIIS
   @DF-RHF iter   6:  -232.23629387649083   -1.73900e-05   1.76971e-06 DIIS
   @DF-RHF iter   7:  -232.23629515267393   -1.27618e-06   4.29059e-07 DIIS
   @DF-RHF iter   8:  -232.23629523094064   -7.82667e-08   1.36116e-07 DIIS
   @DF-RHF iter   9:  -232.23629523919681   -8.25617e-09   3.77875e-08 DIIS
   @DF-RHF iter  10:  -232.23629523994626   -7.49452e-10   8.86158e-09 DIIS
  Energy and wave function converged.


  ==> Post-Iterations <==

    Orbital Energies [Eh]
    ---------------------

    Doubly Occupied:                                                      

       1A    -20.554279     2A    -11.271952     3A    -11.221201  
       4A    -11.216978     5A    -11.202086     6A     -1.354855  
       7A     -1.068645     8A     -0.973209     9A     -0.866434  
      10A     -0.791282    11A     -0.677061    12A     -0.638987  
      13A     -0.627297    14A     -0.580103    15A     -0.560799  
      16A     -0.535970    17A     -0.504285    18A     -0.495361  
      19A     -0.473621    20A     -0.460270    21A     -0.425803  

    Virtual:                                                              

      22A      0.034199    23A      0.045463    24A      0.051643  
      25A      0.053388    26A      0.066617    27A      0.069821  
      28A      0.069980    29A      0.074461    30A      0.081458  
      31A      0.096704    32A      0.102052    33A      0.104497  
      34A      0.110483    35A      0.111110    36A      0.116951  
      37A      0.121069    38A      0.122431    39A      0.136510  
      40A      0.141901    41A      0.144064    42A      0.146085  
      43A      0.150702    44A      0.154769    45A      0.156329  
      46A      0.167818    47A      0.175632    48A      0.183372  
      49A      0.185636    50A      0.186065    51A      0.197051  
      52A      0.206976    53A      0.210767    54A      0.213729  
      55A      0.234031    56A      0.243524    57A      0.255428  
      58A      0.263779    59A      0.271862    60A      0.277642  
      61A      0.281753    62A      0.282174    63A      0.289504  
      64A      0.294527    65A      0.301930    66A      0.312502  
      67A      0.319560    68A      0.323791    69A      0.325528  
      70A      0.330231    71A      0.334497    72A      0.339537  
      73A      0.345934    74A      0.351695    75A      0.354621  
      76A      0.356081    77A      0.359910    78A      0.364073  
      79A      0.371457    80A      0.377035    81A      0.379603  
      82A      0.382605    83A      0.394111    84A      0.400803  
      85A      0.406363    86A      0.411590    87A      0.418302  
      88A      0.421556    89A      0.429773    90A      0.435844  
      91A      0.440163    92A      0.444254    93A      0.450906  
      94A      0.461837    95A      0.466454    96A      0.469984  
      97A      0.476676    98A      0.486817    99A      0.490707  
     100A      0.507877   101A      0.509972   102A      0.519422  
     103A      0.524149   104A      0.530011   105A      0.531772  
     106A      0.535898   107A      0.542188   108A      0.552018  
     109A      0.555247   110A      0.555875   111A      0.572254  
     112A      0.573744   113A      0.587356   114A      0.593503  
     115A      0.604603   116A      0.608083   117A      0.612033  
     118A      0.617413   119A      0.627417   120A      0.637216  
     121A      0.643965   122A      0.645540   123A      0.651939  
     124A      0.653908   125A      0.661802   126A      0.665013  
     127A      0.670309   128A      0.680052   129A      0.690942  
     130A      0.692303   131A      0.697545   132A      0.701123  
     133A      0.709945   134A      0.729747   135A      0.733609  
     136A      0.737414   137A      0.742567   138A      0.749833  
     139A      0.758040   140A      0.772028   141A      0.775222  
     142A      0.799917   143A      0.802429   144A      0.812737  
     145A      0.816157   146A      0.823897   147A      0.831226  
     148A      0.839027   149A      0.854387   150A      0.860923  
     151A      0.869032   152A      0.876525   153A      0.883411  
     154A      0.888156   155A      0.903245   156A      0.919964  
     157A      0.924543   158A      0.933368   159A      0.946802  
     160A      0.949577   161A      0.976954   162A      1.001934  
     163A      1.009999   164A      1.034744   165A      1.044036  
     166A      1.046040   167A      1.057059   168A      1.070774  
     169A      1.085792   170A      1.093534   171A      1.107718  
     172A      1.116660   173A      1.125534   174A      1.137731  
     175A      1.154326   176A      1.157594   177A      1.165155  
     178A      1.172881   179A      1.189991   180A      1.198095  
     181A      1.205013   182A      1.213560   183A      1.222237  
     184A      1.229371   185A      1.241122   186A      1.246300  
     187A      1.253114   188A      1.266041   189A      1.268588  
     190A      1.277548   191A      1.282566   192A      1.287788  
     193A      1.295344   194A      1.305126   195A      1.312711  
     196A      1.326889   197A      1.331126   198A      1.340018  
     199A      1.345503   200A      1.353782   201A      1.363273  
     202A      1.375093   203A      1.376736   204A      1.382566  
     205A      1.390355   206A      1.399542   207A      1.406356  
     208A      1.416251   209A      1.420413   210A      1.425926  
     211A      1.440868   212A      1.444151   213A      1.451763  
     214A      1.458870   215A      1.467153   216A      1.479662  
     217A      1.487188   218A      1.493738   219A      1.505213  
     220A      1.516749   221A      1.520052   222A      1.526118  
     223A      1.540698   224A      1.544839   225A      1.548306  
     226A      1.554265   227A      1.567049   228A      1.574211  
     229A      1.584336   230A      1.593461   231A      1.594092  
     232A      1.597813   233A      1.603039   234A      1.610530  
     235A      1.621961   236A      1.625474   237A      1.647946  
     238A      1.649372   239A      1.656093   240A      1.662179  
     241A      1.672493   242A      1.679577   243A      1.684567  
     244A      1.701254   245A      1.707184   246A      1.716012  
     247A      1.725487   248A      1.736983   249A      1.749768  
     250A      1.760556   251A      1.763794   252A      1.775725  
     253A      1.783828   254A      1.796432   255A      1.802003  
     256A      1.812321   257A      1.822964   258A      1.834178  
     259A      1.844768   260A      1.856234   261A      1.867906  
     262A      1.881422   263A      1.902818   264A      1.908735  
     265A      1.918026   266A      1.923371   267A      1.952268  
     268A      1.966673   269A      1.975690   270A      1.991193  
     271A      2.011009   272A      2.017402   273A      2.026366  
     274A      2.042374   275A      2.061614   276A      2.084943  
     277A      2.119413   278A      2.123571   279A      2.138292  
     280A      2.140385   281A      2.193513   282A      2.195406  
     283A      2.245913   284A      2.277549   285A      2.305700  
     286A      2.330368   287A      2.349692   288A      2.354310  
     289A      2.386726   290A      2.407221   291A      2.437192  
     292A      2.470455   293A      2.487440   294A      2.497947  
     295A      2.526356   296A      2.533884   297A      2.544321  
     298A      2.615576   299A      2.638339   300A      2.641026  
     301A      2.664965   302A      2.695106   303A      2.708021  
     304A      2.795517   305A      2.833432   306A      2.842848  
     307A      2.858147   308A      2.896018   309A      2.896422  
     310A      2.929714   311A      2.933070   312A      2.981385  
     313A      2.999276   314A      3.020290   315A      3.043507  
     316A      3.075750   317A      3.080356   318A      3.113993  
     319A      3.116965   320A      3.135232   321A      3.178753  
     322A      3.202477   323A      3.218802   324A      3.237483  
     325A      3.250764   326A      3.277612   327A      3.291224  
     328A      3.320354   329A      3.336307   330A      3.358352  
     331A      3.393824   332A      3.408159   333A      3.427230  
     334A      3.440790   335A      3.442600   336A      3.453890  
     337A      3.466892   338A      3.485158   339A      3.494173  
     340A      3.495574   341A      3.503663   342A      3.518657  
     343A      3.532918   344A      3.538055   345A      3.546394  
     346A      3.551533   347A      3.561737   348A      3.573781  
     349A      3.579817   350A      3.580421   351A      3.595243  
     352A      3.598145   353A      3.606586   354A      3.614493  
     355A      3.618315   356A      3.630824   357A      3.636781  
     358A      3.647543   359A      3.657617   360A      3.661791  
     361A      3.675846   362A      3.696275   363A      3.700964  
     364A      3.709414   365A      3.728909   366A      3.741195  
     367A      3.766032   368A      3.773765   369A      3.791314  
     370A      3.799539   371A      3.800935   372A      3.811624  
     373A      3.813757   374A      3.820083   375A      3.835705  
     376A      3.845634   377A      3.860579   378A      3.871047  
     379A      3.871980   380A      3.880898   381A      3.884531  
     382A      3.898398   383A      3.909096   384A      3.912259  
     385A      3.920850   386A      3.936083   387A      3.944058  
     388A      3.952525   389A      3.956531   390A      3.964623  
     391A      3.967064   392A      3.980558   393A      3.997313  
     394A      4.001211   395A      4.011011   396A      4.032791  
     397A      4.043132   398A      4.082685   399A      4.087865  
     400A      4.097314   401A      4.114138   402A      4.122017  
     403A      4.128824   404A      4.145841   405A      4.155086  
     406A      4.173252   407A      4.187825   408A      4.197437  
     409A      4.207725   410A      4.210608   411A      4.220102  
     412A      4.233294   413A      4.254650   414A      4.263239  
     415A      4.267129   416A      4.287726   417A      4.292754  
     418A      4.297605   419A      4.313428   420A      4.326126  
     421A      4.339966   422A      4.347791   423A      4.349503  
     424A      4.369937   425A      4.387538   426A      4.390134  
     427A      4.400502   428A      4.409446   429A      4.412317  
     430A      4.430396   431A      4.437394   432A      4.440046  
     433A      4.453316   434A      4.465531   435A      4.471660  
     436A      4.480402   437A      4.495232   438A      4.499666  
     439A      4.509658   440A      4.527249   441A      4.530300  
     442A      4.534913   443A      4.539557   444A      4.552027  
     445A      4.563348   446A      4.565204   447A      4.577568  
     448A      4.579549   449A      4.595255   450A      4.602092  
     451A      4.609417   452A      4.617553   453A      4.624580  
     454A      4.627328   455A      4.644700   456A      4.650061  
     457A      4.656690   458A      4.665738   459A      4.684134  
     460A      4.690214   461A      4.698392   462A      4.716398  
     463A      4.718445   464A      4.725273   465A      4.745103  
     466A      4.756021   467A      4.758527   468A      4.761481  
     469A      4.774916   470A      4.783327   471A      4.791834  
     472A      4.802557   473A      4.805333   474A      4.811589  
     475A      4.829082   476A      4.832191   477A      4.846032  
     478A      4.849634   479A      4.861206   480A      4.867735  
     481A      4.879564   482A      4.891809   483A      4.901295  
     484A      4.902562   485A      4.911256   486A      4.917776  
     487A      4.926370   488A      4.937893   489A      4.944406  
     490A      4.948108   491A      4.955765   492A      4.967013  
     493A      4.979095   494A      4.985093   495A      4.997256  
     496A      5.013365   497A      5.016852   498A      5.034983  
     499A      5.040347   500A      5.045536   501A      5.061832  
     502A      5.076171   503A      5.080946   504A      5.096476  
     505A      5.104484   506A      5.113810   507A      5.133560  
     508A      5.141025   509A      5.172196   510A      5.186053  
     511A      5.196861   512A      5.211246   513A      5.223972  
     514A      5.237083   515A      5.251735   516A      5.273287  
     517A      5.280227   518A      5.297819   519A      5.300566  
     520A      5.320619   521A      5.330371   522A      5.344656  
     523A      5.364956   524A      5.373733   525A      5.386937  
     526A      5.398103   527A      5.404516   528A      5.442875  
     529A      5.446723   530A      5.465967   531A      5.491919  
     532A      5.501950   533A      5.521320   534A      5.532375  
     535A      5.546996   536A      5.568018   537A      5.580644  
     538A      5.598131   539A      5.606027   540A      5.648797  
     541A      5.654765   542A      5.668439   543A      5.691411  
     544A      5.707626   545A      5.784911   546A      5.795778  
     547A      5.800490   548A      5.807597   549A      5.827009  
     550A      5.836124   551A      5.842398   552A      5.865480  
     553A      5.867986   554A      5.877335   555A      5.925899  
     556A      5.938546   557A      5.947314   558A      5.961106  
     559A      5.980140   560A      6.034675   561A      6.040826  
     562A      6.052312   563A      6.072945   564A      6.088541  
     565A      6.110485   566A      6.136210   567A      6.149234  
     568A      6.214828   569A      6.291050   570A      6.321764  
     571A      6.343494   572A      6.359169   573A      6.395074  
     574A      6.404761   575A      6.410615   576A      6.437090  
     577A      6.452753   578A      6.481156   579A      6.513883  
     580A      6.527942   581A      6.537094   582A      6.565691  
     583A      6.576612   584A      6.595289   585A      6.616878  
     586A      6.636133   587A      6.754083   588A      6.804022  
     589A      6.837905   590A      6.954350   591A      6.964858  
     592A      7.076907   593A      7.087491   594A      7.258619  
     595A      7.279583   596A      7.341061   597A      7.467223  
     598A      7.524405   599A      7.543561   600A      7.559022  
     601A      7.593703   602A      7.604007   603A      7.616922  
     604A      7.662072   605A      7.703056   606A      7.731689  
     607A      7.763767   608A      7.820275   609A      7.829434  
     610A      7.856372   611A      7.879372   612A      7.948342  
     613A      7.957001   614A      8.133808   615A      8.230142  
     616A      8.323005   617A      8.467875   618A      8.665451  
     619A      9.627832   620A      9.728699   621A      9.910431  
     622A      9.988653   623A     13.644789   624A     13.884694  
     625A     14.072040   626A     14.253918   627A     14.807538  
     628A     44.028603   629A     45.581568   630A     45.627200  
     631A     45.927253  

    Final Occupation by Irrep:
              A 
    DOCC [    21 ]

  @DF-RHF Final Energy:  -232.23629523994626

   => Energetics <=

    Nuclear Repulsion Energy =            192.0950131820812601
    One-Electron Energy =                -695.6616601610087400
    Two-Electron Energy =                 271.3303517389811645
    Total Energy =                       -232.2362952399462870

Computation Completed


Properties will be evaluated at   0.000000,   0.000000,   0.000000 [a0]

Properties computed using the SCF density matrix

  Nuclear Dipole Moment: [e a0]
     X:   137.5553      Y:    -8.1266      Z:     6.4521

  Electronic Dipole Moment: [e a0]
     X:  -136.9318      Y:     7.8344      Z:    -6.5239

  Dipole Moment: [e a0]
     X:     0.6235      Y:    -0.2923      Z:    -0.0718     Total:     0.6924

  Dipole Moment: [D]
     X:     1.5848      Y:    -0.7429      Z:    -0.1824     Total:     1.7598


*** tstop() called on r282 at Fri Sep 10 23:13:05 2021
Module time:
	user time   =      89.96 seconds =       1.50 minutes
	system time =       1.23 seconds =       0.02 minutes
	total time  =         91 seconds =       1.52 minutes
Total time:
	user time   =     244.19 seconds =       4.07 minutes
	system time =       3.79 seconds =       0.06 minutes
	total time  =        248 seconds =       4.13 minutes

  //>>>>>>>>>>>>>>>>>>>>>>>>>>>>>>>>>>>//
  //            Monomer B HF           //
  //<<<<<<<<<<<<<<<<<<<<<<<<<<<<<<<<<<<//


*** tstart() called on r282
*** at Fri Sep 10 23:13:05 2021

   => Loading Basis Set <=

    Name: JUN-CC-PVTZ
    Role: ORBITAL
    Keyword: BASIS
    atoms 1-2, 9, 12, 16, 20, 23, 26                         entry C          line   217 file /home/r08543048/miniconda3/share/psi4/basis/jun-cc-pvtz.gbs 
    atoms 3-4, 6-8, 10-11, 13-15, 17-19, 21-22, 24-25, 27-29 entry H          line    36 file /home/r08543048/miniconda3/share/psi4/basis/jun-cc-pvtz.gbs 
    atoms 5                                                  entry O          line   305 file /home/r08543048/miniconda3/share/psi4/basis/jun-cc-pvtz.gbs 


         ---------------------------------------------------------
                                   SCF
               by Justin Turney, Rob Parrish, Andy Simmonett
                          and Daniel G. A. Smith
                              RHF Reference
                        1 Threads,  20980 MiB Core
         ---------------------------------------------------------

  ==> Geometry <==

    Molecular point group: c1
    Full point group: C1

    Geometry (in Angstrom), charge = 0, multiplicity = 1:

       Center              X                  Y                   Z               Mass       
    ------------   -----------------  -----------------  -----------------  -----------------
      Gh(C)           2.450157897491    -0.863052361260    -0.171452817954    12.000000000000
      Gh(C)           1.289282897491    -1.294929361260     0.710480182046    12.000000000000
      Gh(H)           3.279991897491    -0.529891361260     0.462138182046     1.007825032230
      Gh(H)           2.802839897491    -1.759140361260    -0.690689817954     1.007825032230
      Gh(O)           0.829865897491    -0.286066361260     1.612434182046    15.994914619570
      Gh(H)           0.424117897491    -1.538115361260     0.092376182046     1.007825032230
      Gh(H)           1.563170897491    -2.197431361260     1.265826182046     1.007825032230
      Gh(H)           1.560716897491    -0.069851361260     2.201788182046     1.007825032230
      Gh(C)           2.119738897491     0.215019638740    -1.202862817954    12.000000000000
      Gh(H)           2.926995897491     0.247280638740    -1.938145817954     1.007825032230
      Gh(H)           1.221234897491    -0.086406361260    -1.749494817954     1.007825032230
      Gh(C)           1.926670897491     1.612097638740    -0.620820817954    12.000000000000
      Gh(H)           2.820502897491     1.924039638740    -0.077020817954     1.007825032230
      Gh(H)           1.750513897491     2.339914638740    -1.413171817954     1.007825032230
      Gh(H)           1.087027897491     1.642882638740     0.069164182046     1.007825032230
         C           -1.855576102509     1.903931638740     0.625906182046    12.000000000000
         H           -1.171098102509     1.606995638740     1.420841182046     1.007825032230
         H           -2.835899102509     2.081403638740     1.071032182046     1.007825032230
         H           -1.502805102509     2.846389638740     0.206431182046     1.007825032230
         C           -1.934938102509     0.812233638740    -0.433255817954    12.000000000000
         H           -2.604585102509     1.120957638740    -1.241450817954     1.007825032230
         H           -0.949346102509     0.668488638740    -0.885348817954     1.007825032230
         C           -2.415983102509    -0.515653361260     0.137548182046    12.000000000000
         H           -3.401111102509    -0.374339361260     0.591017182046     1.007825032230
         H           -1.742750102509    -0.815531361260     0.944627182046     1.007825032230
         C           -2.492326102509    -1.609617361260    -0.920435817954    12.000000000000
         H           -1.517802102509    -1.769429361260    -1.385866817954     1.007825032230
         H           -2.820910102509    -2.559269361260    -0.498220817954     1.007825032230
         H           -3.190769102509    -1.335000361260    -1.712295817954     1.007825032230

  Running in c1 symmetry.

  Rotational constants: A =      0.05350  B =      0.02598  C =      0.02299 [cm^-1]
  Rotational constants: A =   1603.87466  B =    778.98381  C =    689.27287 [MHz]
  Nuclear repulsion =  131.124638924165623

  Charge       = 0
  Multiplicity = 1
  Electrons    = 34
  Nalpha       = 17
  Nbeta        = 17

  ==> Algorithm <==

  SCF Algorithm Type is DF.
  DIIS enabled.
  MOM disabled.
  Fractional occupation disabled.
  Guess Type is SAD.
  Energy threshold   = 1.00e-08
  Density threshold  = 1.00e-08
  Integral threshold = 0.00e+00

  ==> Primary Basis <==

  Basis Set: JUN-CC-PVTZ
    Blend: JUN-CC-PVTZ
    Number of shells: 237
    Number of basis function: 631
    Number of Cartesian functions: 705
    Spherical Harmonics?: true
    Max angular momentum: 3

   => Loading Basis Set <=

    Name: (JUN-CC-PVTZ AUX)
    Role: JKFIT
    Keyword: DF_BASIS_SCF
    atoms 1-2, 9, 12, 16, 20, 23, 26                         entry C          line   152 file /home/r08543048/miniconda3/share/psi4/basis/jun-cc-pvtz-jkfit.gbs 
    atoms 3-4, 6-8, 10-11, 13-15, 17-19, 21-22, 24-25, 27-29 entry H          line    70 file /home/r08543048/miniconda3/share/psi4/basis/jun-cc-pvtz-jkfit.gbs 
    atoms 5                                                  entry O          line   272 file /home/r08543048/miniconda3/share/psi4/basis/jun-cc-pvtz-jkfit.gbs 

  ==> Pre-Iterations <==

   -------------------------------------------------------
    Irrep   Nso     Nmo     Nalpha   Nbeta   Ndocc  Nsocc
   -------------------------------------------------------
     A        631     631       0       0       0       0
   -------------------------------------------------------
    Total     631     631      17      17      17       0
   -------------------------------------------------------

  ==> Integral Setup <==

  ==> DiskDFJK: Density-Fitted J/K Matrices <==

    J tasked:                  Yes
    K tasked:                  Yes
    wK tasked:                  No
    OpenMP threads:              1
    Integrals threads:           1
    Memory [MiB]:            15735
    Algorithm:                Core
    Integral Cache:           LOAD
    Schwarz Cutoff:          1E-12
    Fitting Condition:       1E-10

   => Auxiliary Basis Set <=

  Basis Set: (JUN-CC-PVTZ AUX)
    Blend: JUN-CC-PVTZ-JKFIT
    Number of shells: 461
    Number of basis function: 1455
    Number of Cartesian functions: 1744
    Spherical Harmonics?: true
    Max angular momentum: 4

  Minimum eigenvalue in the overlap matrix is 3.4255506248E-05.
  Using Symmetric Orthogonalization.

  SCF Guess: Superposition of Atomic Densities via on-the-fly atomic UHF.

  ==> Iterations <==

                           Total Energy        Delta E     RMS |[F,P]|

   @DF-RHF iter SAD:  -156.79665621305074   -1.56797e+02   0.00000e+00 
   @DF-RHF iter   1:  -157.14961799693356   -3.52962e-01   9.13791e-04 DIIS
   @DF-RHF iter   2:  -157.31608184192794   -1.66464e-01   4.24878e-04 DIIS
   @DF-RHF iter   3:  -157.35337022137819   -3.72884e-02   7.48853e-05 DIIS
   @DF-RHF iter   4:  -157.35576461517070   -2.39439e-03   1.74897e-05 DIIS
   @DF-RHF iter   5:  -157.35585646746236   -9.18523e-05   4.51801e-06 DIIS
   @DF-RHF iter   6:  -157.35586413319930   -7.66574e-06   5.65603e-07 DIIS
   @DF-RHF iter   7:  -157.35586431320576   -1.80006e-07   9.96863e-08 DIIS
   @DF-RHF iter   8:  -157.35586431821741   -5.01166e-09   2.22661e-08 DIIS
   @DF-RHF iter   9:  -157.35586431848884   -2.71427e-10   5.02539e-09 DIIS
  Energy and wave function converged.


  ==> Post-Iterations <==

    Orbital Energies [Eh]
    ---------------------

    Doubly Occupied:                                                      

       1A    -11.213341     2A    -11.212685     3A    -11.207690  
       4A    -11.207515     5A     -1.071601     6A     -0.980196  
       7A     -0.859971     8A     -0.787339     9A     -0.639383  
      10A     -0.584125    11A     -0.575583    12A     -0.567043  
      13A     -0.513858    14A     -0.494175    15A     -0.469272  
      16A     -0.461814    17A     -0.455672  

    Virtual:                                                              

      18A      0.030782    19A      0.045445    20A      0.047921  
      21A      0.052832    22A      0.065696    23A      0.069301  
      24A      0.069830    25A      0.075631    26A      0.080719  
      27A      0.094773    28A      0.101380    29A      0.104458  
      30A      0.108478    31A      0.110036    32A      0.113367  
      33A      0.120251    34A      0.122637    35A      0.135829  
      36A      0.138376    37A      0.142965    38A      0.147129  
      39A      0.149020    40A      0.153841    41A      0.155488  
      42A      0.164563    43A      0.168219    44A      0.180249  
      45A      0.182163    46A      0.193563    47A      0.196999  
      48A      0.201549    49A      0.205689    50A      0.215884  
      51A      0.225077    52A      0.229640    53A      0.239132  
      54A      0.263804    55A      0.264620    56A      0.265109  
      57A      0.281125    58A      0.286777    59A      0.290052  
      60A      0.295809    61A      0.305703    62A      0.307467  
      63A      0.313456    64A      0.318752    65A      0.322345  
      66A      0.326763    67A      0.334219    68A      0.334888  
      69A      0.339307    70A      0.347034    71A      0.349429  
      72A      0.354491    73A      0.363912    74A      0.369720  
      75A      0.371839    76A      0.375766    77A      0.380109  
      78A      0.386140    79A      0.389765    80A      0.399231  
      81A      0.403445    82A      0.406669    83A      0.412444  
      84A      0.416577    85A      0.423861    86A      0.433849  
      87A      0.437953    88A      0.444339    89A      0.449443  
      90A      0.455205    91A      0.460374    92A      0.466406  
      93A      0.472688    94A      0.480364    95A      0.484823  
      96A      0.492767    97A      0.502523    98A      0.514082  
      99A      0.521288   100A      0.527253   101A      0.530286  
     102A      0.540136   103A      0.541408   104A      0.549891  
     105A      0.555500   106A      0.557570   107A      0.564060  
     108A      0.575732   109A      0.577491   110A      0.589262  
     111A      0.594991   112A      0.601409   113A      0.608362  
     114A      0.613635   115A      0.618285   116A      0.626589  
     117A      0.635015   118A      0.639822   119A      0.643136  
     120A      0.652255   121A      0.658965   122A      0.666929  
     123A      0.672709   124A      0.682793   125A      0.690017  
     126A      0.697368   127A      0.703863   128A      0.712943  
     129A      0.719292   130A      0.724614   131A      0.732918  
     132A      0.744179   133A      0.755348   134A      0.767094  
     135A      0.771274   136A      0.789722   137A      0.796531  
     138A      0.808285   139A      0.815788   140A      0.821024  
     141A      0.828281   142A      0.830694   143A      0.847872  
     144A      0.849882   145A      0.854729   146A      0.863205  
     147A      0.871534   148A      0.873343   149A      0.879207  
     150A      0.892215   151A      0.899397   152A      0.905954  
     153A      0.925163   154A      0.933733   155A      0.951437  
     156A      0.954954   157A      0.967039   158A      0.981384  
     159A      0.992853   160A      1.003337   161A      1.013833  
     162A      1.026597   163A      1.034337   164A      1.046332  
     165A      1.053629   166A      1.071414   167A      1.086245  
     168A      1.094869   169A      1.110054   170A      1.124416  
     171A      1.127367   172A      1.140824   173A      1.153033  
     174A      1.170151   175A      1.180822   176A      1.190986  
     177A      1.205261   178A      1.209868   179A      1.215754  
     180A      1.220262   181A      1.224640   182A      1.233104  
     183A      1.248713   184A      1.256031   185A      1.264753  
     186A      1.271190   187A      1.277658   188A      1.281083  
     189A      1.290648   190A      1.298991   191A      1.302769  
     192A      1.322722   193A      1.334200   194A      1.337441  
     195A      1.344936   196A      1.349643   197A      1.359783  
     198A      1.361466   199A      1.369555   200A      1.382967  
     201A      1.387268   202A      1.398648   203A      1.404415  
     204A      1.406775   205A      1.416840   206A      1.424329  
     207A      1.427747   208A      1.448578   209A      1.451252  
     210A      1.458925   211A      1.464210   212A      1.476635  
     213A      1.479703   214A      1.485603   215A      1.496033  
     216A      1.503894   217A      1.514429   218A      1.525594  
     219A      1.533360   220A      1.539508   221A      1.547103  
     222A      1.557638   223A      1.561881   224A      1.581122  
     225A      1.584663   226A      1.593399   227A      1.596639  
     228A      1.604817   229A      1.609198   230A      1.617137  
     231A      1.624013   232A      1.629865   233A      1.635862  
     234A      1.647851   235A      1.654165   236A      1.663354  
     237A      1.672064   238A      1.674239   239A      1.690146  
     240A      1.703152   241A      1.711227   242A      1.721897  
     243A      1.724948   244A      1.727760   245A      1.750322  
     246A      1.758713   247A      1.765459   248A      1.781212  
     249A      1.792272   250A      1.809019   251A      1.814930  
     252A      1.822753   253A      1.829118   254A      1.853781  
     255A      1.867936   256A      1.879108   257A      1.886136  
     258A      1.896929   259A      1.905166   260A      1.919793  
     261A      1.930171   262A      1.943760   263A      1.953101  
     264A      1.957795   265A      1.980545   266A      2.009201  
     267A      2.011008   268A      2.025336   269A      2.028070  
     270A      2.046428   271A      2.067650   272A      2.084555  
     273A      2.089009   274A      2.107662   275A      2.141897  
     276A      2.173752   277A      2.181808   278A      2.196390  
     279A      2.217572   280A      2.225020   281A      2.286784  
     282A      2.312485   283A      2.374245   284A      2.414647  
     285A      2.428726   286A      2.452678   287A      2.507397  
     288A      2.536173   289A      2.551277   290A      2.587860  
     291A      2.604517   292A      2.606154   293A      2.668207  
     294A      2.727832   295A      2.747668   296A      2.763480  
     297A      2.774168   298A      2.821926   299A      2.827572  
     300A      2.856153   301A      2.876016   302A      2.889679  
     303A      2.902713   304A      2.922609   305A      2.934856  
     306A      2.941886   307A      2.965293   308A      2.981317  
     309A      3.012255   310A      3.024199   311A      3.045605  
     312A      3.063442   313A      3.067182   314A      3.080760  
     315A      3.118249   316A      3.137276   317A      3.144491  
     318A      3.155636   319A      3.168320   320A      3.176137  
     321A      3.190932   322A      3.212974   323A      3.254162  
     324A      3.283487   325A      3.289958   326A      3.309994  
     327A      3.315119   328A      3.332282   329A      3.342918  
     330A      3.359806   331A      3.372615   332A      3.406882  
     333A      3.414822   334A      3.417886   335A      3.430128  
     336A      3.448363   337A      3.461867   338A      3.470081  
     339A      3.477171   340A      3.500457   341A      3.505139  
     342A      3.506858   343A      3.515633   344A      3.525413  
     345A      3.526956   346A      3.558078   347A      3.566439  
     348A      3.570125   349A      3.583850   350A      3.587489  
     351A      3.599502   352A      3.608772   353A      3.620114  
     354A      3.636208   355A      3.645598   356A      3.652283  
     357A      3.655779   358A      3.666150   359A      3.673836  
     360A      3.679958   361A      3.691898   362A      3.710031  
     363A      3.719760   364A      3.729328   365A      3.741415  
     366A      3.749944   367A      3.762599   368A      3.776065  
     369A      3.794661   370A      3.804113   371A      3.819330  
     372A      3.829773   373A      3.836178   374A      3.847757  
     375A      3.849724   376A      3.866885   377A      3.872818  
     378A      3.884739   379A      3.889916   380A      3.893488  
     381A      3.908882   382A      3.912662   383A      3.943275  
     384A      3.945873   385A      3.958598   386A      3.962719  
     387A      3.964884   388A      3.976616   389A      3.983058  
     390A      3.991269   391A      3.995194   392A      4.007307  
     393A      4.016945   394A      4.038818   395A      4.068094  
     396A      4.080611   397A      4.089098   398A      4.117889  
     399A      4.126798   400A      4.144458   401A      4.154697  
     402A      4.167479   403A      4.185091   404A      4.199070  
     405A      4.215131   406A      4.222734   407A      4.226759  
     408A      4.236615   409A      4.251754   410A      4.257945  
     411A      4.271862   412A      4.278696   413A      4.286970  
     414A      4.291745   415A      4.307284   416A      4.321673  
     417A      4.337749   418A      4.342740   419A      4.349486  
     420A      4.368155   421A      4.376963   422A      4.388776  
     423A      4.393638   424A      4.396753   425A      4.414374  
     426A      4.418258   427A      4.431043   428A      4.434512  
     429A      4.452063   430A      4.462798   431A      4.467855  
     432A      4.492692   433A      4.498698   434A      4.511744  
     435A      4.514180   436A      4.524015   437A      4.525112  
     438A      4.527913   439A      4.543776   440A      4.548589  
     441A      4.557194   442A      4.563553   443A      4.573072  
     444A      4.587172   445A      4.601506   446A      4.605740  
     447A      4.618639   448A      4.624808   449A      4.630820  
     450A      4.643574   451A      4.655683   452A      4.660249  
     453A      4.665849   454A      4.679104   455A      4.681776  
     456A      4.685823   457A      4.705951   458A      4.710150  
     459A      4.728654   460A      4.743312   461A      4.746313  
     462A      4.752948   463A      4.771083   464A      4.781647  
     465A      4.784430   466A      4.797492   467A      4.803097  
     468A      4.817793   469A      4.821210   470A      4.835670  
     471A      4.838818   472A      4.847522   473A      4.856305  
     474A      4.865681   475A      4.879728   476A      4.887883  
     477A      4.892097   478A      4.902778   479A      4.911724  
     480A      4.920613   481A      4.927659   482A      4.936848  
     483A      4.944089   484A      4.957657   485A      4.971596  
     486A      4.978187   487A      4.988272   488A      5.003611  
     489A      5.004936   490A      5.012697   491A      5.031496  
     492A      5.044832   493A      5.055694   494A      5.057440  
     495A      5.073872   496A      5.086933   497A      5.102911  
     498A      5.109673   499A      5.122277   500A      5.123488  
     501A      5.138698   502A      5.139511   503A      5.143586  
     504A      5.159904   505A      5.170023   506A      5.180278  
     507A      5.205524   508A      5.213199   509A      5.239339  
     510A      5.258397   511A      5.262362   512A      5.268542  
     513A      5.272249   514A      5.302544   515A      5.317403  
     516A      5.320673   517A      5.342121   518A      5.359010  
     519A      5.367103   520A      5.371782   521A      5.388898  
     522A      5.407948   523A      5.434688   524A      5.442839  
     525A      5.445368   526A      5.458833   527A      5.465962  
     528A      5.496767   529A      5.545712   530A      5.556580  
     531A      5.567495   532A      5.581513   533A      5.598131  
     534A      5.633535   535A      5.646159   536A      5.655316  
     537A      5.663103   538A      5.676780   539A      5.682588  
     540A      5.737959   541A      5.757436   542A      5.765455  
     543A      5.778725   544A      5.789051   545A      5.805380  
     546A      5.817615   547A      5.840753   548A      5.858317  
     549A      5.873480   550A      5.916196   551A      5.917439  
     552A      5.931369   553A      5.958296   554A      5.963629  
     555A      5.973365   556A      5.998817   557A      6.004307  
     558A      6.030831   559A      6.058239   560A      6.093846  
     561A      6.107251   562A      6.132485   563A      6.183185  
     564A      6.197889   565A      6.234569   566A      6.256391  
     567A      6.284134   568A      6.380654   569A      6.395717  
     570A      6.413003   571A      6.437357   572A      6.478836  
     573A      6.489722   574A      6.505133   575A      6.522945  
     576A      6.560183   577A      6.566103   578A      6.572997  
     579A      6.605367   580A      6.661113   581A      6.676028  
     582A      6.771431   583A      6.834706   584A      6.932199  
     585A      6.969676   586A      7.000337   587A      7.148152  
     588A      7.305528   589A      7.375117   590A      7.436792  
     591A      7.492556   592A      7.563711   593A      7.610155  
     594A      7.660166   595A      7.706555   596A      7.718404  
     597A      7.724105   598A      7.762057   599A      7.825189  
     600A      7.857802   601A      7.904378   602A      7.958908  
     603A      7.996965   604A      8.109148   605A      8.261451  
     606A      8.354315   607A      8.377232   608A      8.556580  
     609A      8.755503   610A      9.556625   611A      9.600497  
     612A      9.647160   613A      9.840528   614A      9.896376  
     615A      9.981339   616A     10.049955   617A     10.147424  
     618A     10.360479   619A     11.365407   620A     11.755638  
     621A     12.801542   622A     13.546503   623A     13.839591  
     624A     14.345579   625A     14.571709   626A     14.760192  
     627A     43.832704   628A     44.473636   629A     45.461013  
     630A     45.996194   631A     61.720966  

    Final Occupation by Irrep:
              A 
    DOCC [    17 ]

  @DF-RHF Final Energy:  -157.35586431848884

   => Energetics <=

    Nuclear Repulsion Energy =            131.1246389241656232
    One-Electron Energy =                -470.3584818499543871
    Two-Electron Energy =                 181.8779786072998945
    Total Energy =                       -157.3558643184888410

Computation Completed


Properties will be evaluated at   0.000000,   0.000000,   0.000000 [a0]

Properties computed using the SCF density matrix

  Nuclear Dipole Moment: [e a0]
     X:  -139.7075      Y:     9.4789      Z:    -9.5066

  Electronic Dipole Moment: [e a0]
     X:   139.7074      Y:    -9.4788      Z:     9.5058

  Dipole Moment: [e a0]
     X:    -0.0001      Y:     0.0001      Z:    -0.0007     Total:     0.0007

  Dipole Moment: [D]
     X:    -0.0002      Y:     0.0002      Z:    -0.0019     Total:     0.0019


*** tstop() called on r282 at Fri Sep 10 23:14:26 2021
Module time:
	user time   =      79.93 seconds =       1.33 minutes
	system time =       1.14 seconds =       0.02 minutes
	total time  =         81 seconds =       1.35 minutes
Total time:
	user time   =     324.12 seconds =       5.40 minutes
	system time =       4.94 seconds =       0.08 minutes
	total time  =        329 seconds =       5.48 minutes
  Constructing Basis Sets for SAPT...

   => Loading Basis Set <=

    Name: (JUN-CC-PVTZ AUX)
    Role: RIFIT
    Keyword: DF_BASIS_SAPT
    atoms 1-2, 9, 12, 16, 20, 23, 26                         entry C          line   132 file /home/r08543048/miniconda3/share/psi4/basis/jun-cc-pvtz-ri.gbs 
    atoms 3-4, 6-8, 10-11, 13-15, 17-19, 21-22, 24-25, 27-29 entry H          line    30 file /home/r08543048/miniconda3/share/psi4/basis/jun-cc-pvtz-ri.gbs 
    atoms 5                                                  entry O          line   244 file /home/r08543048/miniconda3/share/psi4/basis/jun-cc-pvtz-ri.gbs 


  //>>>>>>>>>>>>>>>>>>>>>>>>>>>>>>>>>>>//
  //               SAPT0               //
  //<<<<<<<<<<<<<<<<<<<<<<<<<<<<<<<<<<<//


*** tstart() called on r282
*** at Fri Sep 10 23:14:26 2021

        SAPT0  
    Ed Hohenstein
     6 June 2009

      Orbital Information
  --------------------------
    NSO        =       631
    NMO        =       631
    NRI        =      1473
    NOCC A     =        21
    NOCC B     =        17
    FOCC A     =         0
    FOCC B     =         0
    NVIR A     =       610
    NVIR B     =       614

    Elst10,r            =    -0.002734927175 [Eh]
    Exch10              =     0.007070072141 [Eh]
    Exch10 (S^2)        =     0.007059933884 [Eh]

    Iter     Energy [mEh]          dE [mEh]         Residual      Time [s]
       1      -0.41764858       0.417648582       2.581639467             2
       2      -0.50474316       0.087094582       0.429782264             4
       3      -0.50443929      -0.000303871       0.120396097             6
       4      -0.50358453      -0.000854767       0.031314308             8
       5      -0.50361497       0.000030448       0.010039225            10
       6      -0.50366572       0.000050747       0.002633306            13
       7      -0.50366600       0.000000284       0.000875566            15
       8      -0.50366227      -0.000003740       0.000223157            17
       9      -0.50366252       0.000000250       0.000063601            19
      10      -0.50366269       0.000000172       0.000019379            21
      11      -0.50366267      -0.000000013       0.000005773            23
      12      -0.50366266      -0.000000015       0.000001555            25
      13      -0.50366266       0.000000003       0.000000515            27

    CHF Iterations converged


    Iter     Energy [mEh]          dE [mEh]         Residual      Time [s]
       1      -0.97410437       0.974104366       4.721242040             2
       2      -1.10163648       0.127532111       1.719313264             5
       3      -1.13682491       0.035188430       0.374513997             7
       4      -1.13470047      -0.002124438       0.119088053             8
       5      -1.13309435      -0.001606118       0.020353764            10
       6      -1.13328877       0.000194415       0.005241014            12
       7      -1.13331770       0.000028930       0.001207402            14
       8      -1.13331054      -0.000007157       0.000345173            16
       9      -1.13330889      -0.000001646       0.000081076            18
      10      -1.13330943       0.000000533       0.000019458            20
      11      -1.13330946       0.000000033       0.000005506            22
      12      -1.13330944      -0.000000022       0.000001423            24
      13      -1.13330943      -0.000000004       0.000000326            26

    CHF Iterations converged

    Ind20,r (A<-B)      =    -0.000503662661 [Eh]
    Ind20,r (B<-A)      =    -0.001133309434 [Eh]
    Ind20,r             =    -0.001636972095 [Eh]
    Exch-Ind20,r (A<-B) =     0.000428698594 [Eh]
    Exch-Ind20,r (B<-A) =     0.000710223042 [Eh]
    Exch-Ind20,r        =     0.001138921637 [Eh]
    Disp20              =    -0.009523885042 [Eh]
    Disp20 (SS)         =    -0.004761942521 [Eh]
    Disp20 (OS)         =    -0.004761942521 [Eh]
    Exch-Disp20         =     0.000799022990 [Eh]
    Exch-Disp20 (SS)    =     0.000518215176 [Eh]
    Exch-Disp20 (OS)    =     0.000280807814 [Eh]

    SAPT Results 
  --------------------------------------------------------------------------------------------------------
    Electrostatics                 -2.73492718 [mEh]      -1.71619271 [kcal/mol]      -7.18055031 [kJ/mol]
      Elst10,r                     -2.73492718 [mEh]      -1.71619271 [kcal/mol]      -7.18055031 [kJ/mol]

    Exchange                        7.07007214 [mEh]       4.43653725 [kcal/mol]      18.56247185 [kJ/mol]
      Exch10                        7.07007214 [mEh]       4.43653725 [kcal/mol]      18.56247185 [kJ/mol]
      Exch10(S^2)                   7.05993388 [mEh]       4.43017540 [kcal/mol]      18.53585386 [kJ/mol]

    Induction                      -1.01216117 [mEh]      -0.63514072 [kcal/mol]      -2.65742878 [kJ/mol]
      Ind20,r                      -1.63697210 [mEh]      -1.02721550 [kcal/mol]      -4.29786964 [kJ/mol]
      Exch-Ind20,r                  1.13892164 [mEh]       0.71468412 [kcal/mol]       2.99023835 [kJ/mol]
      delta HF,r (2)               -0.51411071 [mEh]      -0.32260934 [kcal/mol]      -1.34979748 [kJ/mol]

    Dispersion                     -8.72486205 [mEh]      -5.47493360 [kcal/mol]     -22.90712216 [kJ/mol]
      Disp20                       -9.52388504 [mEh]      -5.97632809 [kcal/mol]     -25.00495673 [kJ/mol]
      Exch-Disp20                   0.79902299 [mEh]       0.50139450 [kcal/mol]       2.09783457 [kJ/mol]
      Disp20 (SS)                  -4.76194252 [mEh]      -2.98816405 [kcal/mol]     -12.50247837 [kJ/mol]
      Disp20 (OS)                  -4.76194252 [mEh]      -2.98816405 [kcal/mol]     -12.50247837 [kJ/mol]
      Exch-Disp20 (SS)              0.51821518 [mEh]       0.32518493 [kcal/mol]       1.36057376 [kJ/mol]
      Exch-Disp20 (OS)              0.28080781 [mEh]       0.17620956 [kcal/mol]       0.73726081 [kJ/mol]

  Total HF                          3.32298380 [mEh]       2.08520381 [kcal/mol]       8.72449276 [kJ/mol]
  Total SAPT0                      -5.40187825 [mEh]      -3.38972978 [kcal/mol]     -14.18262940 [kJ/mol]

  Special recipe for scaled SAPT0 (see Manual):
    Electrostatics sSAPT0          -2.73492718 [mEh]      -1.71619271 [kcal/mol]      -7.18055031 [kJ/mol]
    Exchange sSAPT0                 7.07007214 [mEh]       4.43653725 [kcal/mol]      18.56247185 [kJ/mol]
    Induction sSAPT0               -1.00724755 [mEh]      -0.63205738 [kcal/mol]      -2.64452808 [kJ/mol]
    Dispersion sSAPT0              -8.72141485 [mEh]      -5.47277044 [kcal/mol]     -22.89807153 [kJ/mol]
  Total sSAPT0                     -5.39351744 [mEh]      -3.38448329 [kcal/mol]     -14.16067808 [kJ/mol]
  --------------------------------------------------------------------------------------------------------

*** tstop() called on r282 at Fri Sep 10 23:18:59 2021
Module time:
	user time   =     240.11 seconds =       4.00 minutes
	system time =      32.10 seconds =       0.54 minutes
	total time  =        273 seconds =       4.55 minutes
Total time:
	user time   =     564.42 seconds =       9.41 minutes
	system time =      37.04 seconds =       0.62 minutes
	total time  =        602 seconds =      10.03 minutes

    Psi4 stopped on: Friday, 10 September 2021 11:18PM
    Psi4 wall time for execution: 0:10:02.34

*** Psi4 exiting successfully. Buy a developer a beer!
