
    -----------------------------------------------------------------------
          Psi4: An Open-Source Ab Initio Electronic Structure Package
                               Psi4 1.3.2 release

                         Git: Rev {HEAD} ecbda83 


    R. M. Parrish, L. A. Burns, D. G. A. Smith, A. C. Simmonett,
    A. E. DePrince III, E. G. Hohenstein, U. Bozkaya, A. Yu. Sokolov,
    R. Di Remigio, R. M. Richard, J. F. Gonthier, A. M. James,
    H. R. McAlexander, A. Kumar, M. Saitow, X. Wang, B. P. Pritchard,
    P. Verma, H. F. Schaefer III, K. Patkowski, R. A. King, E. F. Valeev,
    F. A. Evangelista, J. M. Turney, T. D. Crawford, and C. D. Sherrill,
    J. Chem. Theory Comput. 13(7) pp 3185--3197 (2017).
    (doi: 10.1021/acs.jctc.7b00174)


                         Additional Contributions by
    P. Kraus, H. Kruse, M. H. Lechner, M. C. Schieber, R. A. Shaw,
    A. Alenaizan, R. Galvelis, Z. L. Glick, S. Lehtola, and J. P. Misiewicz

    -----------------------------------------------------------------------


    Psi4 started on: Friday, 10 September 2021 10:44PM

    Process ID: 57280
    Host:       r282
    PSIDATADIR: /home/r08543048/miniconda3/share/psi4
    Memory:     500.0 MiB
    Threads:    1
    
  ==> Input File <==

--------------------------------------------------------------------------
# Any line starting with the # character is a comment line
#! Sample  computation

memory 22 gb

molecule Dimer {
0 1
 C -2.451152    0.326206   -0.977618
 C -1.949129   -0.808432   -0.106855
 O -1.731128   -0.401484    1.244482
 H -3.424838    0.677085   -0.632593
 H -2.560686   -0.004628   -2.010955
 H -1.754201    1.162251   -0.949255
 H -2.639466   -1.655875   -0.143441
 H -0.979442   -1.158915   -0.457037
 H -2.579421   -0.127057    1.608780






    
    
    
 --
0 1
 C  0.947943    2.020092    0.289782
 H  1.714695    2.368016    0.983523
 H  0.060689    1.767875    0.871451
 H  0.699698    2.847806   -0.375194
 C  1.437442    0.801992   -0.483643
 H  0.673954    0.489190   -1.202558
 H  2.321941    1.062078   -1.072248
 C  1.769474   -0.369454    0.432561
 H  0.891773   -0.605746    1.039418
 H  2.554608   -0.063041    1.129379
 C  2.221840   -1.602447   -0.339656
 H  3.111380   -1.385434   -0.932931
 H  2.457140   -2.431741    0.327048
 H  1.442699   -1.937745   -1.026669





units angstrom

no_reorient
symmetry c1
}

set globals{
  basis jun-cc-pvtz
}

energy('sapt0')


--------------------------------------------------------------------------

  Memory set to  20.489 GiB by Python driver.

  //>>>>>>>>>>>>>>>>>>>>>>>>>>>>>>>>>>>//
  //              Dimer HF             //
  //<<<<<<<<<<<<<<<<<<<<<<<<<<<<<<<<<<<//


*** tstart() called on r282
*** at Fri Sep 10 22:44:33 2021

   => Loading Basis Set <=

    Name: JUN-CC-PVTZ
    Role: ORBITAL
    Keyword: BASIS
    atoms 1-2, 10, 14, 17, 20             entry C          line   217 file /home/r08543048/miniconda3/share/psi4/basis/jun-cc-pvtz.gbs 
    atoms 3                               entry O          line   305 file /home/r08543048/miniconda3/share/psi4/basis/jun-cc-pvtz.gbs 
    atoms 4-9, 11-13, 15-16, 18-19, 21-23 entry H          line    36 file /home/r08543048/miniconda3/share/psi4/basis/jun-cc-pvtz.gbs 


         ---------------------------------------------------------
                                   SCF
               by Justin Turney, Rob Parrish, Andy Simmonett
                          and Daniel G. A. Smith
                              RHF Reference
                        1 Threads,  20980 MiB Core
         ---------------------------------------------------------

  ==> Geometry <==

    Molecular point group: c1
    Full point group: C1

    Geometry (in Angstrom), charge = 0, multiplicity = 1:

       Center              X                  Y                   Z               Mass       
    ------------   -----------------  -----------------  -----------------  -----------------
         C           -2.432268716531     0.335754990954    -1.004651244812    12.000000000000
         C           -1.930245716531    -0.798883009046    -0.133888244812    12.000000000000
         O           -1.712244716531    -0.391935009046     1.217448755188    15.994914619570
         H           -3.405954716531     0.686633990954    -0.659626244812     1.007825032230
         H           -2.541802716531     0.004920990954    -2.037988244812     1.007825032230
         H           -1.735317716531     1.171799990954    -0.976288244812     1.007825032230
         H           -2.620582716531    -1.646326009046    -0.170474244812     1.007825032230
         H           -0.960558716531    -1.149366009046    -0.484070244812     1.007825032230
         H           -2.560537716531    -0.117508009046     1.581746755188     1.007825032230
         C            0.966826283469     2.029640990954     0.262748755188    12.000000000000
         H            1.733578283469     2.377564990954     0.956489755188     1.007825032230
         H            0.079572283469     1.777423990954     0.844417755188     1.007825032230
         H            0.718581283469     2.857354990954    -0.402227244812     1.007825032230
         C            1.456325283469     0.811540990954    -0.510676244812    12.000000000000
         H            0.692837283469     0.498738990954    -1.229591244812     1.007825032230
         H            2.340824283469     1.071626990954    -1.099281244812     1.007825032230
         C            1.788357283469    -0.359905009046     0.405527755188    12.000000000000
         H            0.910656283469    -0.596197009046     1.012384755188     1.007825032230
         H            2.573491283469    -0.053492009046     1.102345755188     1.007825032230
         C            2.240723283469    -1.592898009046    -0.366689244812    12.000000000000
         H            3.130263283469    -1.375885009046    -0.959964244812     1.007825032230
         H            2.476023283469    -2.422192009046     0.300014755188     1.007825032230
         H            1.461582283469    -1.928196009046    -1.053702244812     1.007825032230

  Running in c1 symmetry.

  Rotational constants: A =      0.08515  B =      0.03923  C =      0.03331 [cm^-1]
  Rotational constants: A =   2552.63259  B =   1175.94685  C =    998.47619 [MHz]
  Nuclear repulsion =  326.657727666568576

  Charge       = 0
  Multiplicity = 1
  Electrons    = 60
  Nalpha       = 30
  Nbeta        = 30

  ==> Algorithm <==

  SCF Algorithm Type is DF.
  DIIS enabled.
  MOM disabled.
  Fractional occupation disabled.
  Guess Type is SAD.
  Energy threshold   = 1.00e-08
  Density threshold  = 1.00e-08
  Integral threshold = 0.00e+00

  ==> Primary Basis <==

  Basis Set: JUN-CC-PVTZ
    Blend: JUN-CC-PVTZ
    Number of shells: 187
    Number of basis function: 497
    Number of Cartesian functions: 555
    Spherical Harmonics?: true
    Max angular momentum: 3

   => Loading Basis Set <=

    Name: (JUN-CC-PVTZ AUX)
    Role: JKFIT
    Keyword: DF_BASIS_SCF
    atoms 1-2, 10, 14, 17, 20             entry C          line   152 file /home/r08543048/miniconda3/share/psi4/basis/jun-cc-pvtz-jkfit.gbs 
    atoms 3                               entry O          line   272 file /home/r08543048/miniconda3/share/psi4/basis/jun-cc-pvtz-jkfit.gbs 
    atoms 4-9, 11-13, 15-16, 18-19, 21-23 entry H          line    70 file /home/r08543048/miniconda3/share/psi4/basis/jun-cc-pvtz-jkfit.gbs 

  ==> Pre-Iterations <==

   -------------------------------------------------------
    Irrep   Nso     Nmo     Nalpha   Nbeta   Ndocc  Nsocc
   -------------------------------------------------------
     A        497     497       0       0       0       0
   -------------------------------------------------------
    Total     497     497      30      30      30       0
   -------------------------------------------------------

  ==> Integral Setup <==

  ==> DiskDFJK: Density-Fitted J/K Matrices <==

    J tasked:                  Yes
    K tasked:                  Yes
    wK tasked:                  No
    OpenMP threads:              1
    Integrals threads:           1
    Memory [MiB]:            15735
    Algorithm:                Core
    Integral Cache:           SAVE
    Schwarz Cutoff:          1E-12
    Fitting Condition:       1E-10

   => Auxiliary Basis Set <=

  Basis Set: (JUN-CC-PVTZ AUX)
    Blend: JUN-CC-PVTZ-JKFIT
    Number of shells: 363
    Number of basis function: 1145
    Number of Cartesian functions: 1372
    Spherical Harmonics?: true
    Max angular momentum: 4

  Minimum eigenvalue in the overlap matrix is 4.8443179413E-05.
  Using Symmetric Orthogonalization.

  SCF Guess: Superposition of Atomic Densities via on-the-fly atomic UHF.

  ==> Iterations <==

                           Total Energy        Delta E     RMS |[F,P]|

   @DF-RHF iter SAD:  -310.37351473075313   -3.10374e+02   0.00000e+00 
   @DF-RHF iter   1:  -311.16047096085026   -7.86956e-01   1.53024e-03 DIIS
   @DF-RHF iter   2:  -311.42945946606824   -2.68989e-01   7.60170e-04 DIIS
   @DF-RHF iter   3:  -311.49334237397613   -6.38829e-02   1.40073e-04 DIIS
   @DF-RHF iter   4:  -311.49733009871773   -3.98772e-03   5.26148e-05 DIIS
   @DF-RHF iter   5:  -311.49770264413672   -3.72545e-04   1.04518e-05 DIIS
   @DF-RHF iter   6:  -311.49772487227455   -2.22281e-05   2.72710e-06 DIIS
   @DF-RHF iter   7:  -311.49772638543556   -1.51316e-06   7.10501e-07 DIIS
   @DF-RHF iter   8:  -311.49772650694894   -1.21513e-07   1.81972e-07 DIIS
   @DF-RHF iter   9:  -311.49772651754125   -1.05923e-08   4.91663e-08 DIIS
   @DF-RHF iter  10:  -311.49772651841431   -8.73058e-10   1.33657e-08 DIIS
   @DF-RHF iter  11:  -311.49772651845529   -4.09841e-11   3.69482e-09 DIIS
  Energy and wave function converged.


  ==> Post-Iterations <==

    Orbital Energies [Eh]
    ---------------------

    Doubly Occupied:                                                      

       1A    -20.558178     2A    -11.275760     3A    -11.218677  
       4A    -11.206877     5A    -11.203098     6A    -11.202446  
       7A    -11.198783     8A     -1.358477     9A     -1.064335  
      10A     -1.015648    11A     -0.973535    12A     -0.853711  
      13A     -0.849422    14A     -0.780297    15A     -0.691338  
      16A     -0.636503    17A     -0.620331    18A     -0.607317  
      19A     -0.577743    20A     -0.569347    21A     -0.561073  
      22A     -0.547350    23A     -0.527315    24A     -0.507288  
      25A     -0.488662    26A     -0.484168    27A     -0.461845  
      28A     -0.453768    29A     -0.448806    30A     -0.445437  

    Virtual:                                                              

      31A      0.050835    32A      0.052269    33A      0.059381  
      34A      0.059939    35A      0.072472    36A      0.078783  
      37A      0.080175    38A      0.090456    39A      0.094796  
      40A      0.110197    41A      0.112712    42A      0.117062  
      43A      0.121423    44A      0.128153    45A      0.130349  
      46A      0.140616    47A      0.151967    48A      0.152645  
      49A      0.176770    50A      0.181574    51A      0.186600  
      52A      0.200192    53A      0.208411    54A      0.219059  
      55A      0.222362    56A      0.236090    57A      0.248409  
      58A      0.259789    59A      0.262820    60A      0.267652  
      61A      0.268655    62A      0.275260    63A      0.282841  
      64A      0.288415    65A      0.309418    66A      0.315239  
      67A      0.318296    68A      0.322707    69A      0.324724  
      70A      0.330162    71A      0.334891    72A      0.338812  
      73A      0.341155    74A      0.348195    75A      0.352518  
      76A      0.357913    77A      0.362426    78A      0.374260  
      79A      0.382144    80A      0.384698    81A      0.391949  
      82A      0.399377    83A      0.408398    84A      0.411758  
      85A      0.415320    86A      0.434798    87A      0.437713  
      88A      0.441304    89A      0.445759    90A      0.467120  
      91A      0.472020    92A      0.478560    93A      0.484319  
      94A      0.499863    95A      0.510123    96A      0.521407  
      97A      0.525532    98A      0.528282    99A      0.536363  
     100A      0.540457   101A      0.546899   102A      0.562583  
     103A      0.575996   104A      0.582978   105A      0.591229  
     106A      0.596218   107A      0.598804   108A      0.611664  
     109A      0.615511   110A      0.653664   111A      0.658180  
     112A      0.667494   113A      0.678500   114A      0.699486  
     115A      0.706769   116A      0.714056   117A      0.719167  
     118A      0.728043   119A      0.743992   120A      0.750096  
     121A      0.765794   122A      0.773610   123A      0.779308  
     124A      0.791082   125A      0.800338   126A      0.808404  
     127A      0.816779   128A      0.821126   129A      0.828362  
     130A      0.836501   131A      0.840655   132A      0.843802  
     133A      0.855301   134A      0.861007   135A      0.868628  
     136A      0.871517   137A      0.882783   138A      0.884936  
     139A      0.900690   140A      0.905521   141A      0.919724  
     142A      0.926796   143A      0.938020   144A      0.941556  
     145A      0.948070   146A      0.969065   147A      0.997006  
     148A      1.000527   149A      1.000926   150A      1.010354  
     151A      1.014374   152A      1.040751   153A      1.053937  
     154A      1.061221   155A      1.087239   156A      1.098718  
     157A      1.108818   158A      1.124170   159A      1.147484  
     160A      1.156113   161A      1.172801   162A      1.194052  
     163A      1.218929   164A      1.227079   165A      1.240148  
     166A      1.242173   167A      1.244619   168A      1.258624  
     169A      1.288390   170A      1.298305   171A      1.310796  
     172A      1.330961   173A      1.331893   174A      1.341350  
     175A      1.354452   176A      1.362724   177A      1.377935  
     178A      1.392511   179A      1.398340   180A      1.406734  
     181A      1.412780   182A      1.429728   183A      1.432612  
     184A      1.448231   185A      1.456214   186A      1.466900  
     187A      1.475287   188A      1.489929   189A      1.505730  
     190A      1.511557   191A      1.518962   192A      1.519815  
     193A      1.527639   194A      1.542253   195A      1.551652  
     196A      1.567081   197A      1.577755   198A      1.586784  
     199A      1.594531   200A      1.605275   201A      1.612383  
     202A      1.627892   203A      1.635241   204A      1.639743  
     205A      1.644053   206A      1.647641   207A      1.664864  
     208A      1.676530   209A      1.694069   210A      1.708280  
     211A      1.722505   212A      1.738024   213A      1.743909  
     214A      1.750277   215A      1.766312   216A      1.779512  
     217A      1.798813   218A      1.813005   219A      1.824924  
     220A      1.854639   221A      1.877309   222A      1.880541  
     223A      1.901789   224A      1.915519   225A      1.922012  
     226A      1.933349   227A      1.952845   228A      1.957392  
     229A      1.962914   230A      1.983796   231A      2.019333  
     232A      2.050467   233A      2.061922   234A      2.104023  
     235A      2.172043   236A      2.230327   237A      2.344062  
     238A      2.412735   239A      2.437759   240A      2.559683  
     241A      2.575981   242A      2.745200   243A      2.763402  
     244A      2.776505   245A      2.803234   246A      2.823563  
     247A      2.826803   248A      2.850815   249A      2.857538  
     250A      2.873880   251A      2.884905   252A      2.895706  
     253A      2.904618   254A      2.913477   255A      2.925160  
     256A      2.930233   257A      2.944966   258A      2.955778  
     259A      2.980094   260A      3.013065   261A      3.015048  
     262A      3.052467   263A      3.054894   264A      3.111771  
     265A      3.119433   266A      3.130494   267A      3.136128  
     268A      3.144638   269A      3.146799   270A      3.153554  
     271A      3.168572   272A      3.186000   273A      3.195767  
     274A      3.224840   275A      3.232022   276A      3.247504  
     277A      3.270238   278A      3.275139   279A      3.286103  
     280A      3.295125   281A      3.298251   282A      3.320155  
     283A      3.324889   284A      3.327620   285A      3.344477  
     286A      3.360405   287A      3.370739   288A      3.394569  
     289A      3.407235   290A      3.414498   291A      3.420922  
     292A      3.424963   293A      3.438801   294A      3.451411  
     295A      3.456766   296A      3.468159   297A      3.477864  
     298A      3.483307   299A      3.496924   300A      3.505617  
     301A      3.507866   302A      3.514975   303A      3.520383  
     304A      3.527771   305A      3.548503   306A      3.551418  
     307A      3.561330   308A      3.579511   309A      3.585464  
     310A      3.586965   311A      3.597240   312A      3.630007  
     313A      3.636536   314A      3.645516   315A      3.651657  
     316A      3.663550   317A      3.679557   318A      3.690207  
     319A      3.696464   320A      3.717875   321A      3.735094  
     322A      3.745994   323A      3.751506   324A      3.783977  
     325A      3.795235   326A      3.797959   327A      3.813949  
     328A      3.828808   329A      3.846609   330A      3.850075  
     331A      3.857409   332A      3.872258   333A      3.885546  
     334A      3.905008   335A      3.913507   336A      3.944361  
     337A      3.955148   338A      3.962864   339A      3.969702  
     340A      3.980212   341A      3.990787   342A      3.996487  
     343A      4.013245   344A      4.024081   345A      4.050809  
     346A      4.057837   347A      4.078116   348A      4.111909  
     349A      4.133956   350A      4.164501   351A      4.183961  
     352A      4.188365   353A      4.193525   354A      4.216254  
     355A      4.243790   356A      4.246553   357A      4.250955  
     358A      4.260453   359A      4.264370   360A      4.276497  
     361A      4.280199   362A      4.292582   363A      4.302618  
     364A      4.318469   365A      4.325397   366A      4.345410  
     367A      4.346155   368A      4.358105   369A      4.383379  
     370A      4.389101   371A      4.393823   372A      4.396081  
     373A      4.405190   374A      4.422869   375A      4.428003  
     376A      4.443627   377A      4.450544   378A      4.459065  
     379A      4.474908   380A      4.482109   381A      4.493817  
     382A      4.500682   383A      4.513592   384A      4.522800  
     385A      4.533370   386A      4.546762   387A      4.551533  
     388A      4.555817   389A      4.575292   390A      4.609119  
     391A      4.616214   392A      4.628539   393A      4.645801  
     394A      4.659324   395A      4.662144   396A      4.681071  
     397A      4.689030   398A      4.705974   399A      4.719013  
     400A      4.732539   401A      4.756217   402A      4.763508  
     403A      4.768088   404A      4.823437   405A      4.835864  
     406A      4.856259   407A      4.864219   408A      4.897892  
     409A      4.902280   410A      4.917676   411A      4.941886  
     412A      4.961382   413A      4.999500   414A      5.051151  
     415A      5.066035   416A      5.115302   417A      5.126110  
     418A      5.137439   419A      5.150911   420A      5.154804  
     421A      5.189187   422A      5.208608   423A      5.223526  
     424A      5.259134   425A      5.270310   426A      5.276499  
     427A      5.287432   428A      5.292442   429A      5.302324  
     430A      5.311846   431A      5.321299   432A      5.330928  
     433A      5.366322   434A      5.370816   435A      5.379918  
     436A      5.393540   437A      5.448452   438A      5.450165  
     439A      5.468516   440A      5.481106   441A      5.543158  
     442A      5.547184   443A      5.568373   444A      5.600543  
     445A      5.626810   446A      5.636457   447A      5.664128  
     448A      5.679517   449A      5.730473   450A      5.750331  
     451A      5.757889   452A      5.759505   453A      5.769464  
     454A      5.791917   455A      5.807358   456A      5.817046  
     457A      5.845407   458A      5.864978   459A      5.892757  
     460A      5.915073   461A      5.922505   462A      5.941146  
     463A      5.966806   464A      5.974689   465A      5.982985  
     466A      6.004879   467A      6.020013   468A      6.081418  
     469A      6.090901   470A      6.198682   471A      6.304199  
     472A      6.394243   473A      6.494585   474A      6.500677  
     475A      6.510641   476A      6.519306   477A      6.551514  
     478A      6.559892   479A      6.571087   480A      6.621037  
     481A      6.655509   482A      6.915161   483A      7.066148  
     484A      7.238442   485A      7.293149   486A      7.398716  
     487A      7.505317   488A      7.646677   489A      7.852407  
     490A      8.169459   491A     13.649051   492A     13.672100  
     493A     14.004831   494A     14.298721   495A     14.529413  
     496A     14.617264   497A     14.759993  

    Final Occupation by Irrep:
              A 
    DOCC [    30 ]

  @DF-RHF Final Energy:  -311.49772651845529

   => Energetics <=

    Nuclear Repulsion Energy =            326.6577276665685758
    One-Electron Energy =               -1069.5358368957840867
    Two-Electron Energy =                 431.3803827107602160
    Total Energy =                       -311.4977265184552948

Computation Completed


Properties will be evaluated at   0.000000,   0.000000,   0.000000 [a0]

Properties computed using the SCF density matrix

  Nuclear Dipole Moment: [e a0]
     X:     2.1411      Y:     1.0827      Z:    -3.0651

  Electronic Dipole Moment: [e a0]
     X:    -2.8201      Y:    -1.0810      Z:     2.7628

  Dipole Moment: [e a0]
     X:    -0.6790      Y:     0.0017      Z:    -0.3023     Total:     0.7433

  Dipole Moment: [D]
     X:    -1.7259      Y:     0.0042      Z:    -0.7684     Total:     1.8892


*** tstop() called on r282 at Fri Sep 10 22:45:37 2021
Module time:
	user time   =      63.08 seconds =       1.05 minutes
	system time =       1.39 seconds =       0.02 minutes
	total time  =         64 seconds =       1.07 minutes
Total time:
	user time   =      63.08 seconds =       1.05 minutes
	system time =       1.39 seconds =       0.02 minutes
	total time  =         64 seconds =       1.07 minutes

  //>>>>>>>>>>>>>>>>>>>>>>>>>>>>>>>>>>>//
  //            Monomer A HF           //
  //<<<<<<<<<<<<<<<<<<<<<<<<<<<<<<<<<<<//


*** tstart() called on r282
*** at Fri Sep 10 22:45:37 2021

   => Loading Basis Set <=

    Name: JUN-CC-PVTZ
    Role: ORBITAL
    Keyword: BASIS
    atoms 1-2, 10, 14, 17, 20             entry C          line   217 file /home/r08543048/miniconda3/share/psi4/basis/jun-cc-pvtz.gbs 
    atoms 3                               entry O          line   305 file /home/r08543048/miniconda3/share/psi4/basis/jun-cc-pvtz.gbs 
    atoms 4-9, 11-13, 15-16, 18-19, 21-23 entry H          line    36 file /home/r08543048/miniconda3/share/psi4/basis/jun-cc-pvtz.gbs 


         ---------------------------------------------------------
                                   SCF
               by Justin Turney, Rob Parrish, Andy Simmonett
                          and Daniel G. A. Smith
                              RHF Reference
                        1 Threads,  20980 MiB Core
         ---------------------------------------------------------

  ==> Geometry <==

    Molecular point group: c1
    Full point group: C1

    Geometry (in Angstrom), charge = 0, multiplicity = 1:

       Center              X                  Y                   Z               Mass       
    ------------   -----------------  -----------------  -----------------  -----------------
         C           -2.432268716531     0.335754990954    -1.004651244812    12.000000000000
         C           -1.930245716531    -0.798883009046    -0.133888244812    12.000000000000
         O           -1.712244716531    -0.391935009046     1.217448755188    15.994914619570
         H           -3.405954716531     0.686633990954    -0.659626244812     1.007825032230
         H           -2.541802716531     0.004920990954    -2.037988244812     1.007825032230
         H           -1.735317716531     1.171799990954    -0.976288244812     1.007825032230
         H           -2.620582716531    -1.646326009046    -0.170474244812     1.007825032230
         H           -0.960558716531    -1.149366009046    -0.484070244812     1.007825032230
         H           -2.560537716531    -0.117508009046     1.581746755188     1.007825032230
      Gh(C)           0.966826283469     2.029640990954     0.262748755188    12.000000000000
      Gh(H)           1.733578283469     2.377564990954     0.956489755188     1.007825032230
      Gh(H)           0.079572283469     1.777423990954     0.844417755188     1.007825032230
      Gh(H)           0.718581283469     2.857354990954    -0.402227244812     1.007825032230
      Gh(C)           1.456325283469     0.811540990954    -0.510676244812    12.000000000000
      Gh(H)           0.692837283469     0.498738990954    -1.229591244812     1.007825032230
      Gh(H)           2.340824283469     1.071626990954    -1.099281244812     1.007825032230
      Gh(C)           1.788357283469    -0.359905009046     0.405527755188    12.000000000000
      Gh(H)           0.910656283469    -0.596197009046     1.012384755188     1.007825032230
      Gh(H)           2.573491283469    -0.053492009046     1.102345755188     1.007825032230
      Gh(C)           2.240723283469    -1.592898009046    -0.366689244812    12.000000000000
      Gh(H)           3.130263283469    -1.375885009046    -0.959964244812     1.007825032230
      Gh(H)           2.476023283469    -2.422192009046     0.300014755188     1.007825032230
      Gh(H)           1.461582283469    -1.928196009046    -1.053702244812     1.007825032230

  Running in c1 symmetry.

  Rotational constants: A =      0.08515  B =      0.03923  C =      0.03331 [cm^-1]
  Rotational constants: A =   2552.63259  B =   1175.94685  C =    998.47619 [MHz]
  Nuclear repulsion =   81.734547418224125

  Charge       = 0
  Multiplicity = 1
  Electrons    = 26
  Nalpha       = 13
  Nbeta        = 13

  ==> Algorithm <==

  SCF Algorithm Type is DF.
  DIIS enabled.
  MOM disabled.
  Fractional occupation disabled.
  Guess Type is SAD.
  Energy threshold   = 1.00e-08
  Density threshold  = 1.00e-08
  Integral threshold = 0.00e+00

  ==> Primary Basis <==

  Basis Set: JUN-CC-PVTZ
    Blend: JUN-CC-PVTZ
    Number of shells: 187
    Number of basis function: 497
    Number of Cartesian functions: 555
    Spherical Harmonics?: true
    Max angular momentum: 3

   => Loading Basis Set <=

    Name: (JUN-CC-PVTZ AUX)
    Role: JKFIT
    Keyword: DF_BASIS_SCF
    atoms 1-2, 10, 14, 17, 20             entry C          line   152 file /home/r08543048/miniconda3/share/psi4/basis/jun-cc-pvtz-jkfit.gbs 
    atoms 3                               entry O          line   272 file /home/r08543048/miniconda3/share/psi4/basis/jun-cc-pvtz-jkfit.gbs 
    atoms 4-9, 11-13, 15-16, 18-19, 21-23 entry H          line    70 file /home/r08543048/miniconda3/share/psi4/basis/jun-cc-pvtz-jkfit.gbs 

  ==> Pre-Iterations <==

   -------------------------------------------------------
    Irrep   Nso     Nmo     Nalpha   Nbeta   Ndocc  Nsocc
   -------------------------------------------------------
     A        497     497       0       0       0       0
   -------------------------------------------------------
    Total     497     497      13      13      13       0
   -------------------------------------------------------

  ==> Integral Setup <==

  ==> DiskDFJK: Density-Fitted J/K Matrices <==

    J tasked:                  Yes
    K tasked:                  Yes
    wK tasked:                  No
    OpenMP threads:              1
    Integrals threads:           1
    Memory [MiB]:            15735
    Algorithm:                Core
    Integral Cache:           LOAD
    Schwarz Cutoff:          1E-12
    Fitting Condition:       1E-10

   => Auxiliary Basis Set <=

  Basis Set: (JUN-CC-PVTZ AUX)
    Blend: JUN-CC-PVTZ-JKFIT
    Number of shells: 363
    Number of basis function: 1145
    Number of Cartesian functions: 1372
    Spherical Harmonics?: true
    Max angular momentum: 4

  Minimum eigenvalue in the overlap matrix is 4.8443179413E-05.
  Using Symmetric Orthogonalization.

  SCF Guess: Superposition of Atomic Densities via on-the-fly atomic UHF.

  ==> Iterations <==

                           Total Energy        Delta E     RMS |[F,P]|

   @DF-RHF iter SAD:  -153.42963211877708   -1.53430e+02   0.00000e+00 
   @DF-RHF iter   1:  -154.01228991987597   -5.82658e-01   1.00980e-03 DIIS
   @DF-RHF iter   2:  -154.11638621979719   -1.04096e-01   5.38440e-04 DIIS
   @DF-RHF iter   3:  -154.14268463298782   -2.62984e-02   9.29206e-05 DIIS
   @DF-RHF iter   4:  -154.14422341067436   -1.53878e-03   3.52325e-05 DIIS
   @DF-RHF iter   5:  -154.14440847524907   -1.85065e-04   6.71143e-06 DIIS
   @DF-RHF iter   6:  -154.14441835261874   -9.87737e-06   1.52056e-06 DIIS
   @DF-RHF iter   7:  -154.14441904490704   -6.92288e-07   4.27771e-07 DIIS
   @DF-RHF iter   8:  -154.14441909590764   -5.10006e-08   1.38246e-07 DIIS
   @DF-RHF iter   9:  -154.14441910166630   -5.75866e-09   3.59756e-08 DIIS
   @DF-RHF iter  10:  -154.14441910208990   -4.23597e-10   7.21794e-09 DIIS
  Energy and wave function converged.


  ==> Post-Iterations <==

    Orbital Energies [Eh]
    ---------------------

    Doubly Occupied:                                                      

       1A    -20.555207     2A    -11.274359     3A    -11.217988  
       4A     -1.354917     5A     -1.014002     6A     -0.847757  
       7A     -0.686595     8A     -0.622435     9A     -0.605796  
      10A     -0.545965    11A     -0.525665    12A     -0.482831  
      13A     -0.444394  

    Virtual:                                                              

      14A      0.033969    15A      0.044749    16A      0.053605  
      17A      0.057251    18A      0.068240    19A      0.073131  
      20A      0.078544    21A      0.087119    22A      0.088894  
      23A      0.104925    24A      0.108240    25A      0.112339  
      26A      0.120088    27A      0.120978    28A      0.126067  
      29A      0.134193    30A      0.135869    31A      0.148907  
      32A      0.151713    33A      0.153699    34A      0.173465  
      35A      0.181065    36A      0.184692    37A      0.193496  
      38A      0.202939    39A      0.228001    40A      0.232431  
      41A      0.251995    42A      0.258227    43A      0.263485  
      44A      0.272788    45A      0.273159    46A      0.278651  
      47A      0.287219    48A      0.294421    49A      0.296764  
      50A      0.306751    51A      0.309778    52A      0.320129  
      53A      0.329734    54A      0.337613    55A      0.341496  
      56A      0.342591    57A      0.357104    58A      0.360402  
      59A      0.364779    60A      0.367787    61A      0.372587  
      62A      0.373402    63A      0.380892    64A      0.390743  
      65A      0.403158    66A      0.410628    67A      0.416636  
      68A      0.431500    69A      0.435258    70A      0.440861  
      71A      0.445647    72A      0.456971    73A      0.464426  
      74A      0.481987    75A      0.498807    76A      0.502866  
      77A      0.504468    78A      0.514302    79A      0.520098  
      80A      0.527206    81A      0.542064    82A      0.548593  
      83A      0.551993    84A      0.556749    85A      0.560286  
      86A      0.577948    87A      0.587583    88A      0.595257  
      89A      0.607059    90A      0.621398    91A      0.623252  
      92A      0.632950    93A      0.646016    94A      0.651357  
      95A      0.653568    96A      0.664867    97A      0.670034  
      98A      0.679618    99A      0.687256   100A      0.688410  
     101A      0.700440   102A      0.711660   103A      0.716873  
     104A      0.729774   105A      0.745861   106A      0.755514  
     107A      0.764096   108A      0.787998   109A      0.803044  
     110A      0.810581   111A      0.817221   112A      0.823804  
     113A      0.839411   114A      0.848459   115A      0.855424  
     116A      0.882519   117A      0.892448   118A      0.906561  
     119A      0.914766   120A      0.930729   121A      0.962708  
     122A      0.992926   123A      1.010026   124A      1.021043  
     125A      1.040116   126A      1.051569   127A      1.063739  
     128A      1.080534   129A      1.097746   130A      1.099928  
     131A      1.110265   132A      1.123054   133A      1.146664  
     134A      1.149018   135A      1.159803   136A      1.170559  
     137A      1.177188   138A      1.196416   139A      1.203282  
     140A      1.218273   141A      1.231824   142A      1.234996  
     143A      1.239238   144A      1.256925   145A      1.262283  
     146A      1.272317   147A      1.274993   148A      1.290816  
     149A      1.296237   150A      1.303940   151A      1.320563  
     152A      1.323314   153A      1.330923   154A      1.346779  
     155A      1.359234   156A      1.364850   157A      1.375707  
     158A      1.382074   159A      1.390865   160A      1.399317  
     161A      1.401868   162A      1.409473   163A      1.420430  
     164A      1.429150   165A      1.447692   166A      1.453778  
     167A      1.461001   168A      1.469714   169A      1.478972  
     170A      1.491448   171A      1.504133   172A      1.514604  
     173A      1.536032   174A      1.541090   175A      1.550300  
     176A      1.554392   177A      1.562902   178A      1.566122  
     179A      1.578482   180A      1.596550   181A      1.602792  
     182A      1.615335   183A      1.618117   184A      1.625135  
     185A      1.634955   186A      1.644578   187A      1.656737  
     188A      1.663176   189A      1.689222   190A      1.696663  
     191A      1.711263   192A      1.726696   193A      1.736327  
     194A      1.742380   195A      1.754967   196A      1.769026  
     197A      1.783156   198A      1.798366   199A      1.807588  
     200A      1.848825   201A      1.860335   202A      1.879024  
     203A      1.901675   204A      1.914650   205A      1.926018  
     206A      1.939108   207A      1.957616   208A      1.969462  
     209A      1.994436   210A      2.016600   211A      2.043214  
     212A      2.102164   213A      2.109412   214A      2.118415  
     215A      2.164179   216A      2.179892   217A      2.211695  
     218A      2.237164   219A      2.265552   220A      2.310358  
     221A      2.332643   222A      2.338015   223A      2.355405  
     224A      2.395073   225A      2.416723   226A      2.446644  
     227A      2.450425   228A      2.473638   229A      2.484913  
     230A      2.500927   231A      2.538494   232A      2.578886  
     233A      2.611799   234A      2.638637   235A      2.649737  
     236A      2.675926   237A      2.693925   238A      2.816951  
     239A      2.837935   240A      2.871394   241A      2.897808  
     242A      2.919818   243A      2.939923   244A      2.998375  
     245A      3.076710   246A      3.129505   247A      3.136174  
     248A      3.231951   249A      3.239335   250A      3.275328  
     251A      3.295035   252A      3.318457   253A      3.342278  
     254A      3.380608   255A      3.415220   256A      3.435668  
     257A      3.453174   258A      3.471319   259A      3.484783  
     260A      3.505835   261A      3.511148   262A      3.537677  
     263A      3.546388   264A      3.554281   265A      3.563689  
     266A      3.576824   267A      3.585915   268A      3.596862  
     269A      3.606270   270A      3.616882   271A      3.627409  
     272A      3.634273   273A      3.645085   274A      3.655811  
     275A      3.661952   276A      3.668099   277A      3.684023  
     278A      3.694300   279A      3.717646   280A      3.743085  
     281A      3.777792   282A      3.788619   283A      3.804454  
     284A      3.816703   285A      3.821783   286A      3.837478  
     287A      3.840094   288A      3.845639   289A      3.863235  
     290A      3.870212   291A      3.884055   292A      3.895330  
     293A      3.901881   294A      3.906213   295A      3.917442  
     296A      3.926240   297A      3.928565   298A      3.949390  
     299A      3.966583   300A      3.981260   301A      3.997240  
     302A      4.020913   303A      4.052868   304A      4.060431  
     305A      4.077610   306A      4.083666   307A      4.106220  
     308A      4.123063   309A      4.147743   310A      4.155828  
     311A      4.176092   312A      4.196269   313A      4.201257  
     314A      4.219721   315A      4.242914   316A      4.248591  
     317A      4.262612   318A      4.274135   319A      4.282628  
     320A      4.291204   321A      4.299853   322A      4.316559  
     323A      4.339845   324A      4.350227   325A      4.357490  
     326A      4.379697   327A      4.385000   328A      4.391063  
     329A      4.406085   330A      4.414367   331A      4.421457  
     332A      4.453178   333A      4.463196   334A      4.467023  
     335A      4.479646   336A      4.482597   337A      4.495539  
     338A      4.505503   339A      4.517332   340A      4.536385  
     341A      4.552997   342A      4.573293   343A      4.578416  
     344A      4.583822   345A      4.600971   346A      4.609838  
     347A      4.612983   348A      4.623212   349A      4.645982  
     350A      4.655417   351A      4.665131   352A      4.671160  
     353A      4.687831   354A      4.705395   355A      4.717600  
     356A      4.731522   357A      4.733875   358A      4.746435  
     359A      4.750190   360A      4.759011   361A      4.766441  
     362A      4.781458   363A      4.787921   364A      4.790029  
     365A      4.804078   366A      4.828421   367A      4.839678  
     368A      4.851672   369A      4.869116   370A      4.878702  
     371A      4.882430   372A      4.894548   373A      4.903063  
     374A      4.906869   375A      4.915374   376A      4.918472  
     377A      4.932531   378A      4.938852   379A      4.949569  
     380A      4.954740   381A      4.966843   382A      4.982412  
     383A      4.990335   384A      5.001815   385A      5.021780  
     386A      5.034450   387A      5.038839   388A      5.055028  
     389A      5.067239   390A      5.089577   391A      5.130746  
     392A      5.133039   393A      5.147771   394A      5.170355  
     395A      5.193685   396A      5.207327   397A      5.215483  
     398A      5.222667   399A      5.246344   400A      5.259347  
     401A      5.291299   402A      5.295099   403A      5.299053  
     404A      5.309111   405A      5.350097   406A      5.368093  
     407A      5.391657   408A      5.404909   409A      5.459022  
     410A      5.466965   411A      5.487635   412A      5.521112  
     413A      5.542933   414A      5.556240   415A      5.577467  
     416A      5.607880   417A      5.614700   418A      5.658933  
     419A      5.680009   420A      5.699666   421A      5.734080  
     422A      5.755665   423A      5.774478   424A      5.801395  
     425A      5.815445   426A      5.835746   427A      5.850556  
     428A      5.902989   429A      5.918669   430A      5.943261  
     431A      5.962270   432A      5.978576   433A      6.036217  
     434A      6.037278   435A      6.074897   436A      6.085476  
     437A      6.116713   438A      6.144593   439A      6.268436  
     440A      6.303784   441A      6.330474   442A      6.348410  
     443A      6.386806   444A      6.390097   445A      6.399372  
     446A      6.404814   447A      6.433991   448A      6.482208  
     449A      6.492545   450A      6.502504   451A      6.515635  
     452A      6.521039   453A      6.559991   454A      6.565551  
     455A      6.749495   456A      6.799890   457A      6.827004  
     458A      6.917417   459A      6.953947   460A      7.059497  
     461A      7.072314   462A      7.241497   463A      7.272486  
     464A      7.296511   465A      7.403005   466A      7.506660  
     467A      7.516656   468A      7.548399   469A      7.588721  
     470A      7.597995   471A      7.606403   472A      7.646390  
     473A      7.687550   474A      7.725077   475A      7.755428  
     476A      7.814001   477A      7.821720   478A      7.851792  
     479A      7.858736   480A      7.941080   481A      7.949267  
     482A      8.130114   483A      8.175012   484A      8.304955  
     485A      8.456855   486A      8.643568   487A      9.609331  
     488A      9.705068   489A      9.892125   490A      9.941963  
     491A     13.654346   492A     13.957711   493A     14.651095  
     494A     43.862123   495A     45.444536   496A     45.547459  
     497A     45.832803  

    Final Occupation by Irrep:
              A 
    DOCC [    13 ]

  @DF-RHF Final Energy:  -154.14441910208990

   => Energetics <=

    Nuclear Repulsion Energy =             81.7345474182241247
    One-Electron Energy =                -371.4021070412344443
    Two-Electron Energy =                 135.5231405209204354
    Total Energy =                       -154.1444191020898984

Computation Completed


Properties will be evaluated at   0.000000,   0.000000,   0.000000 [a0]

Properties computed using the SCF density matrix

  Nuclear Dipole Moment: [e a0]
     X:  -101.4741      Y:   -13.1602      Z:     0.3055

  Electronic Dipole Moment: [e a0]
     X:   100.8689      Y:    13.1755      Z:    -0.7141

  Dipole Moment: [e a0]
     X:    -0.6052      Y:     0.0152      Z:    -0.4086     Total:     0.7304

  Dipole Moment: [D]
     X:    -1.5383      Y:     0.0387      Z:    -1.0386     Total:     1.8565


*** tstop() called on r282 at Fri Sep 10 22:46:12 2021
Module time:
	user time   =      33.85 seconds =       0.56 minutes
	system time =       0.61 seconds =       0.01 minutes
	total time  =         35 seconds =       0.58 minutes
Total time:
	user time   =      96.94 seconds =       1.62 minutes
	system time =       2.00 seconds =       0.03 minutes
	total time  =         99 seconds =       1.65 minutes

  //>>>>>>>>>>>>>>>>>>>>>>>>>>>>>>>>>>>//
  //            Monomer B HF           //
  //<<<<<<<<<<<<<<<<<<<<<<<<<<<<<<<<<<<//


*** tstart() called on r282
*** at Fri Sep 10 22:46:12 2021

   => Loading Basis Set <=

    Name: JUN-CC-PVTZ
    Role: ORBITAL
    Keyword: BASIS
    atoms 1-2, 10, 14, 17, 20             entry C          line   217 file /home/r08543048/miniconda3/share/psi4/basis/jun-cc-pvtz.gbs 
    atoms 3                               entry O          line   305 file /home/r08543048/miniconda3/share/psi4/basis/jun-cc-pvtz.gbs 
    atoms 4-9, 11-13, 15-16, 18-19, 21-23 entry H          line    36 file /home/r08543048/miniconda3/share/psi4/basis/jun-cc-pvtz.gbs 


         ---------------------------------------------------------
                                   SCF
               by Justin Turney, Rob Parrish, Andy Simmonett
                          and Daniel G. A. Smith
                              RHF Reference
                        1 Threads,  20980 MiB Core
         ---------------------------------------------------------

  ==> Geometry <==

    Molecular point group: c1
    Full point group: C1

    Geometry (in Angstrom), charge = 0, multiplicity = 1:

       Center              X                  Y                   Z               Mass       
    ------------   -----------------  -----------------  -----------------  -----------------
      Gh(C)          -2.432268716531     0.335754990954    -1.004651244812    12.000000000000
      Gh(C)          -1.930245716531    -0.798883009046    -0.133888244812    12.000000000000
      Gh(O)          -1.712244716531    -0.391935009046     1.217448755188    15.994914619570
      Gh(H)          -3.405954716531     0.686633990954    -0.659626244812     1.007825032230
      Gh(H)          -2.541802716531     0.004920990954    -2.037988244812     1.007825032230
      Gh(H)          -1.735317716531     1.171799990954    -0.976288244812     1.007825032230
      Gh(H)          -2.620582716531    -1.646326009046    -0.170474244812     1.007825032230
      Gh(H)          -0.960558716531    -1.149366009046    -0.484070244812     1.007825032230
      Gh(H)          -2.560537716531    -0.117508009046     1.581746755188     1.007825032230
         C            0.966826283469     2.029640990954     0.262748755188    12.000000000000
         H            1.733578283469     2.377564990954     0.956489755188     1.007825032230
         H            0.079572283469     1.777423990954     0.844417755188     1.007825032230
         H            0.718581283469     2.857354990954    -0.402227244812     1.007825032230
         C            1.456325283469     0.811540990954    -0.510676244812    12.000000000000
         H            0.692837283469     0.498738990954    -1.229591244812     1.007825032230
         H            2.340824283469     1.071626990954    -1.099281244812     1.007825032230
         C            1.788357283469    -0.359905009046     0.405527755188    12.000000000000
         H            0.910656283469    -0.596197009046     1.012384755188     1.007825032230
         H            2.573491283469    -0.053492009046     1.102345755188     1.007825032230
         C            2.240723283469    -1.592898009046    -0.366689244812    12.000000000000
         H            3.130263283469    -1.375885009046    -0.959964244812     1.007825032230
         H            2.476023283469    -2.422192009046     0.300014755188     1.007825032230
         H            1.461582283469    -1.928196009046    -1.053702244812     1.007825032230

  Running in c1 symmetry.

  Rotational constants: A =      0.08515  B =      0.03923  C =      0.03331 [cm^-1]
  Rotational constants: A =   2552.63259  B =   1175.94685  C =    998.47619 [MHz]
  Nuclear repulsion =  131.108093693470067

  Charge       = 0
  Multiplicity = 1
  Electrons    = 34
  Nalpha       = 17
  Nbeta        = 17

  ==> Algorithm <==

  SCF Algorithm Type is DF.
  DIIS enabled.
  MOM disabled.
  Fractional occupation disabled.
  Guess Type is SAD.
  Energy threshold   = 1.00e-08
  Density threshold  = 1.00e-08
  Integral threshold = 0.00e+00

  ==> Primary Basis <==

  Basis Set: JUN-CC-PVTZ
    Blend: JUN-CC-PVTZ
    Number of shells: 187
    Number of basis function: 497
    Number of Cartesian functions: 555
    Spherical Harmonics?: true
    Max angular momentum: 3

   => Loading Basis Set <=

    Name: (JUN-CC-PVTZ AUX)
    Role: JKFIT
    Keyword: DF_BASIS_SCF
    atoms 1-2, 10, 14, 17, 20             entry C          line   152 file /home/r08543048/miniconda3/share/psi4/basis/jun-cc-pvtz-jkfit.gbs 
    atoms 3                               entry O          line   272 file /home/r08543048/miniconda3/share/psi4/basis/jun-cc-pvtz-jkfit.gbs 
    atoms 4-9, 11-13, 15-16, 18-19, 21-23 entry H          line    70 file /home/r08543048/miniconda3/share/psi4/basis/jun-cc-pvtz-jkfit.gbs 

  ==> Pre-Iterations <==

   -------------------------------------------------------
    Irrep   Nso     Nmo     Nalpha   Nbeta   Ndocc  Nsocc
   -------------------------------------------------------
     A        497     497       0       0       0       0
   -------------------------------------------------------
    Total     497     497      17      17      17       0
   -------------------------------------------------------

  ==> Integral Setup <==

  ==> DiskDFJK: Density-Fitted J/K Matrices <==

    J tasked:                  Yes
    K tasked:                  Yes
    wK tasked:                  No
    OpenMP threads:              1
    Integrals threads:           1
    Memory [MiB]:            15735
    Algorithm:                Core
    Integral Cache:           LOAD
    Schwarz Cutoff:          1E-12
    Fitting Condition:       1E-10

   => Auxiliary Basis Set <=

  Basis Set: (JUN-CC-PVTZ AUX)
    Blend: JUN-CC-PVTZ-JKFIT
    Number of shells: 363
    Number of basis function: 1145
    Number of Cartesian functions: 1372
    Spherical Harmonics?: true
    Max angular momentum: 4

  Minimum eigenvalue in the overlap matrix is 4.8443179413E-05.
  Using Symmetric Orthogonalization.

  SCF Guess: Superposition of Atomic Densities via on-the-fly atomic UHF.

  ==> Iterations <==

                           Total Energy        Delta E     RMS |[F,P]|

   @DF-RHF iter SAD:  -156.79491530790159   -1.56795e+02   0.00000e+00 
   @DF-RHF iter   1:  -157.14971435699016   -3.54799e-01   1.15979e-03 DIIS
   @DF-RHF iter   2:  -157.31609947454589   -1.66385e-01   5.39257e-04 DIIS
   @DF-RHF iter   3:  -157.35336421813298   -3.72647e-02   9.50489e-05 DIIS
   @DF-RHF iter   4:  -157.35575781141679   -2.39359e-03   2.21942e-05 DIIS
   @DF-RHF iter   5:  -157.35584957175541   -9.17603e-05   5.73356e-06 DIIS
   @DF-RHF iter   6:  -157.35585722821463   -7.65646e-06   7.17696e-07 DIIS
   @DF-RHF iter   7:  -157.35585740781303   -1.79598e-07   1.26655e-07 DIIS
   @DF-RHF iter   8:  -157.35585741281210   -4.99907e-09   2.83944e-08 DIIS
   @DF-RHF iter   9:  -157.35585741308324   -2.71143e-10   6.55088e-09 DIIS
  Energy and wave function converged.


  ==> Post-Iterations <==

    Orbital Energies [Eh]
    ---------------------

    Doubly Occupied:                                                      

       1A    -11.213414     2A    -11.212783     3A    -11.207632  
       4A    -11.207583     5A     -1.071440     6A     -0.980153  
       7A     -0.859954     8A     -0.787564     9A     -0.638995  
      10A     -0.584263    11A     -0.575574    12A     -0.566815  
      13A     -0.514053    14A     -0.493968    15A     -0.469605  
      16A     -0.461611    17A     -0.455645  

    Virtual:                                                              

      18A      0.036952    19A      0.049298    20A      0.052405  
      21A      0.055888    22A      0.070117    23A      0.075759  
      24A      0.079576    25A      0.085060    26A      0.091279  
      27A      0.102986    28A      0.110508    29A      0.113110  
      30A      0.117795    31A      0.119786    32A      0.125203  
      33A      0.135950    34A      0.142214    35A      0.148094  
      36A      0.159161    37A      0.172066    38A      0.177943  
      39A      0.183334    40A      0.188856    41A      0.206619  
      42A      0.206922    43A      0.215898    44A      0.229086  
      45A      0.237331    46A      0.242940    47A      0.265299  
      48A      0.271527    49A      0.274879    50A      0.278974  
      51A      0.285799    52A      0.306112    53A      0.308818  
      54A      0.313443    55A      0.318433    56A      0.320811  
      57A      0.325698    58A      0.332837    59A      0.340546  
      60A      0.346821    61A      0.351382    62A      0.354805  
      63A      0.362407    64A      0.369758    65A      0.376984  
      66A      0.382136    67A      0.384163    68A      0.388343  
      69A      0.397251    70A      0.406013    71A      0.412645  
      72A      0.417095    73A      0.419125    74A      0.434100  
      75A      0.444117    76A      0.453680    77A      0.459344  
      78A      0.475034    79A      0.476803    80A      0.485114  
      81A      0.493881    82A      0.501961    83A      0.519592  
      84A      0.523145    85A      0.530887    86A      0.533243  
      87A      0.536534    88A      0.541862    89A      0.558492  
      90A      0.567969    91A      0.576312    92A      0.583552  
      93A      0.593101    94A      0.603299    95A      0.607057  
      96A      0.615425    97A      0.623589    98A      0.638263  
      99A      0.648586   100A      0.653061   101A      0.665847  
     102A      0.696224   103A      0.696840   104A      0.706781  
     105A      0.727213   106A      0.732463   107A      0.750857  
     108A      0.759430   109A      0.777103   110A      0.782961  
     111A      0.789274   112A      0.804562   113A      0.812428  
     114A      0.825610   115A      0.832123   116A      0.844019  
     117A      0.849167   118A      0.854822   119A      0.858946  
     120A      0.873060   121A      0.875289   122A      0.885661  
     123A      0.893316   124A      0.916929   125A      0.925684  
     126A      0.941472   127A      0.951270   128A      0.955849  
     129A      0.966680   130A      0.988043   131A      1.001312  
     132A      1.006639   133A      1.023309   134A      1.032248  
     135A      1.043539   136A      1.046551   137A      1.071073  
     138A      1.083876   139A      1.095382   140A      1.102403  
     141A      1.125295   142A      1.133401   143A      1.149088  
     144A      1.157071   145A      1.169524   146A      1.184213  
     147A      1.199278   148A      1.206624   149A      1.219852  
     150A      1.225586   151A      1.236621   152A      1.250125  
     153A      1.258256   154A      1.276248   155A      1.284178  
     156A      1.296612   157A      1.305987   158A      1.323653  
     159A      1.334288   160A      1.346101   161A      1.352799  
     162A      1.355955   163A      1.375957   164A      1.386538  
     165A      1.392327   166A      1.403290   167A      1.408852  
     168A      1.419285   169A      1.431018   170A      1.442887  
     171A      1.447604   172A      1.456697   173A      1.476513  
     174A      1.486252   175A      1.499607   176A      1.501199  
     177A      1.516692   178A      1.525145   179A      1.542780  
     180A      1.548849   181A      1.565368   182A      1.576642  
     183A      1.578568   184A      1.586758   185A      1.590451  
     186A      1.597627   187A      1.607511   188A      1.620549  
     189A      1.632856   190A      1.640977   191A      1.650395  
     192A      1.659142   193A      1.672755   194A      1.680793  
     195A      1.685318   196A      1.714845   197A      1.728864  
     198A      1.747742   199A      1.767881   200A      1.776098  
     201A      1.787895   202A      1.789449   203A      1.815970  
     204A      1.829789   205A      1.847044   206A      1.860004  
     207A      1.876359   208A      1.895967   209A      1.909522  
     210A      1.922066   211A      1.933575   212A      1.941384  
     213A      1.960148   214A      1.990786   215A      1.998639  
     216A      2.013840   217A      2.042686   218A      2.051961  
     219A      2.069186   220A      2.083563   221A      2.115877  
     222A      2.153636   223A      2.193166   224A      2.281216  
     225A      2.364848   226A      2.385164   227A      2.431872  
     228A      2.535018   229A      2.552424   230A      2.629354  
     231A      2.717637   232A      2.739650   233A      2.757332  
     234A      2.781834   235A      2.803112   236A      2.823690  
     237A      2.856735   238A      2.865237   239A      2.882976  
     240A      2.886080   241A      2.912725   242A      2.917054  
     243A      2.938372   244A      2.944832   245A      2.978984  
     246A      3.005295   247A      3.011477   248A      3.034118  
     249A      3.039443   250A      3.050080   251A      3.093814  
     252A      3.128466   253A      3.138021   254A      3.143667  
     255A      3.149367   256A      3.154904   257A      3.178678  
     258A      3.197226   259A      3.234166   260A      3.269834  
     261A      3.283075   262A      3.294208   263A      3.311656  
     264A      3.322611   265A      3.335415   266A      3.351068  
     267A      3.372061   268A      3.404286   269A      3.408768  
     270A      3.412552   271A      3.420293   272A      3.426954  
     273A      3.442584   274A      3.467745   275A      3.477258  
     276A      3.493703   277A      3.501876   278A      3.507798  
     279A      3.520023   280A      3.529246   281A      3.532180  
     282A      3.568725   283A      3.576077   284A      3.587022  
     285A      3.602611   286A      3.608939   287A      3.612701  
     288A      3.630590   289A      3.636795   290A      3.644766  
     291A      3.658172   292A      3.662712   293A      3.666079  
     294A      3.688440   295A      3.697915   296A      3.733772  
     297A      3.740852   298A      3.752492   299A      3.768901  
     300A      3.790382   301A      3.808955   302A      3.822772  
     303A      3.830863   304A      3.834961   305A      3.852554  
     306A      3.861372   307A      3.867270   308A      3.897226  
     309A      3.898896   310A      3.940055   311A      3.943851  
     312A      3.950197   313A      3.958296   314A      3.962920  
     315A      3.970407   316A      3.995926   317A      4.008937  
     318A      4.020034   319A      4.032999   320A      4.052268  
     321A      4.078567   322A      4.096771   323A      4.136225  
     324A      4.144466   325A      4.167804   326A      4.183646  
     327A      4.194322   328A      4.203220   329A      4.222080  
     330A      4.238243   331A      4.251510   332A      4.266302  
     333A      4.278526   334A      4.293961   335A      4.297682  
     336A      4.303726   337A      4.313806   338A      4.319151  
     339A      4.339133   340A      4.355764   341A      4.368864  
     342A      4.379402   343A      4.381492   344A      4.391278  
     345A      4.412152   346A      4.414534   347A      4.434912  
     348A      4.448995   349A      4.456158   350A      4.478898  
     351A      4.486839   352A      4.501514   353A      4.512257  
     354A      4.518873   355A      4.526805   356A      4.535130  
     357A      4.547031   358A      4.548162   359A      4.563137  
     360A      4.575131   361A      4.589755   362A      4.606144  
     363A      4.621923   364A      4.630564   365A      4.640036  
     366A      4.647258   367A      4.664942   368A      4.690945  
     369A      4.712419   370A      4.714030   371A      4.723835  
     372A      4.728195   373A      4.734803   374A      4.744880  
     375A      4.761161   376A      4.775316   377A      4.792606  
     378A      4.805388   379A      4.826547   380A      4.828204  
     381A      4.833743   382A      4.843483   383A      4.862551  
     384A      4.869076   385A      4.890445   386A      4.902225  
     387A      4.928156   388A      4.935531   389A      4.943025  
     390A      4.967450   391A      4.970030   392A      4.978751  
     393A      5.008917   394A      5.023689   395A      5.040834  
     396A      5.043060   397A      5.055534   398A      5.082864  
     399A      5.110659   400A      5.118594   401A      5.124655  
     402A      5.135972   403A      5.156553   404A      5.174478  
     405A      5.193119   406A      5.238514   407A      5.250401  
     408A      5.253601   409A      5.274700   410A      5.277424  
     411A      5.300060   412A      5.316281   413A      5.321975  
     414A      5.358845   415A      5.361846   416A      5.371316  
     417A      5.383210   418A      5.409715   419A      5.449761  
     420A      5.452184   421A      5.479085   422A      5.540016  
     423A      5.555529   424A      5.565595   425A      5.617040  
     426A      5.631474   427A      5.658189   428A      5.673426  
     429A      5.711058   430A      5.734276   431A      5.755093  
     432A      5.766137   433A      5.775713   434A      5.784677  
     435A      5.810264   436A      5.821968   437A      5.860237  
     438A      5.894640   439A      5.905029   440A      5.912701  
     441A      5.956631   442A      5.968914   443A      5.990297  
     444A      6.000382   445A      6.018932   446A      6.077751  
     447A      6.094407   448A      6.158043   449A      6.186248  
     450A      6.225291   451A      6.311551   452A      6.340225  
     453A      6.361629   454A      6.462603   455A      6.493748  
     456A      6.512258   457A      6.518481   458A      6.554865  
     459A      6.559755   460A      6.602848   461A      6.646325  
     462A      6.740118   463A      6.877135   464A      6.976569  
     465A      7.135808   466A      7.317475   467A      7.393190  
     468A      7.456219   469A      7.569730   470A      7.608919  
     471A      7.666377   472A      7.711882   473A      7.807157  
     474A      7.861073   475A      7.970600   476A      8.002597  
     477A      8.300562   478A      8.351046   479A      8.513092  
     480A      9.564665   481A      9.718182   482A      9.847164  
     483A      9.872527   484A     10.009366   485A     10.106756  
     486A     10.304366   487A     11.311786   488A     11.667024  
     489A     12.761548   490A     13.501272   491A     13.763852  
     492A     14.288281   493A     14.528720   494A     14.695623  
     495A     44.397027   496A     45.662088   497A     61.120739  

    Final Occupation by Irrep:
              A 
    DOCC [    17 ]

  @DF-RHF Final Energy:  -157.35585741308324

   => Energetics <=

    Nuclear Repulsion Energy =            131.1080936934700674
    One-Electron Energy =                -470.3257954344761629
    Two-Electron Energy =                 181.8618443279228245
    Total Energy =                       -157.3558574130832426

Computation Completed


Properties will be evaluated at   0.000000,   0.000000,   0.000000 [a0]

Properties computed using the SCF density matrix

  Nuclear Dipole Moment: [e a0]
     X:   103.6152      Y:    14.2429      Z:    -3.3706

  Electronic Dipole Moment: [e a0]
     X:  -103.6131      Y:   -14.2429      Z:     3.3706

  Dipole Moment: [e a0]
     X:     0.0021      Y:    -0.0000      Z:     0.0000     Total:     0.0021

  Dipole Moment: [D]
     X:     0.0053      Y:    -0.0001      Z:     0.0001     Total:     0.0053


*** tstop() called on r282 at Fri Sep 10 22:46:42 2021
Module time:
	user time   =      29.78 seconds =       0.50 minutes
	system time =       0.61 seconds =       0.01 minutes
	total time  =         30 seconds =       0.50 minutes
Total time:
	user time   =     126.72 seconds =       2.11 minutes
	system time =       2.61 seconds =       0.04 minutes
	total time  =        129 seconds =       2.15 minutes
  Constructing Basis Sets for SAPT...

   => Loading Basis Set <=

    Name: (JUN-CC-PVTZ AUX)
    Role: RIFIT
    Keyword: DF_BASIS_SAPT
    atoms 1-2, 10, 14, 17, 20             entry C          line   132 file /home/r08543048/miniconda3/share/psi4/basis/jun-cc-pvtz-ri.gbs 
    atoms 3                               entry O          line   244 file /home/r08543048/miniconda3/share/psi4/basis/jun-cc-pvtz-ri.gbs 
    atoms 4-9, 11-13, 15-16, 18-19, 21-23 entry H          line    30 file /home/r08543048/miniconda3/share/psi4/basis/jun-cc-pvtz-ri.gbs 


  //>>>>>>>>>>>>>>>>>>>>>>>>>>>>>>>>>>>//
  //               SAPT0               //
  //<<<<<<<<<<<<<<<<<<<<<<<<<<<<<<<<<<<//


*** tstart() called on r282
*** at Fri Sep 10 22:46:42 2021

        SAPT0  
    Ed Hohenstein
     6 June 2009

      Orbital Information
  --------------------------
    NSO        =       497
    NMO        =       497
    NRI        =      1159
    NOCC A     =        13
    NOCC B     =        17
    FOCC A     =         0
    FOCC B     =         0
    NVIR A     =       484
    NVIR B     =       480

    Elst10,r            =    -0.002510244048 [Eh]
    Exch10              =     0.005993860577 [Eh]
    Exch10 (S^2)        =     0.005986038644 [Eh]

    Iter     Energy [mEh]          dE [mEh]         Residual      Time [s]
       1      -0.33950170       0.339501703       2.368158932             1
       2      -0.41224528       0.072743575       0.404180456             1
       3      -0.41172141      -0.000523864       0.131189029             2
       4      -0.41098840      -0.000733011       0.036078654             3
       5      -0.41102782       0.000039415       0.011776242             4
       6      -0.41107517       0.000047356       0.003481810             5
       7      -0.41107817       0.000002994       0.000946649             6
       8      -0.41107381      -0.000004354       0.000207744             7
       9      -0.41107446       0.000000645       0.000050049             8
      10      -0.41107447       0.000000008       0.000016782             9
      11      -0.41107443      -0.000000033       0.000004411            10
      12      -0.41107443      -0.000000000       0.000001007            11
      13      -0.41107444       0.000000002       0.000000224            11

    CHF Iterations converged


    Iter     Energy [mEh]          dE [mEh]         Residual      Time [s]
       1      -0.94105733       0.941057335       4.481057381             1
       2      -1.08375822       0.142700886       1.487041601             3
       3      -1.10727416       0.023515939       0.340323134             4
       4      -1.10430687      -0.002967285       0.111328372             4
       5      -1.10301325      -0.001293629       0.018471058             5
       6      -1.10320411       0.000190868       0.005360926             6
       7      -1.10323371       0.000029601       0.001133521             7
       8      -1.10322486      -0.000008849       0.000260088             8
       9      -1.10322442      -0.000000449       0.000062801             9
      10      -1.10322481       0.000000398       0.000013686            10
      11      -1.10322481      -0.000000002       0.000003531            11
      12      -1.10322480      -0.000000013       0.000000988            12

    CHF Iterations converged

    Ind20,r (A<-B)      =    -0.000411074435 [Eh]
    Ind20,r (B<-A)      =    -0.001103224798 [Eh]
    Ind20,r             =    -0.001514299233 [Eh]
    Exch-Ind20,r (A<-B) =     0.000347077880 [Eh]
    Exch-Ind20,r (B<-A) =     0.000666939264 [Eh]
    Exch-Ind20,r        =     0.001014017144 [Eh]
    Disp20              =    -0.007590255467 [Eh]
    Disp20 (SS)         =    -0.003795127733 [Eh]
    Disp20 (OS)         =    -0.003795127733 [Eh]
    Exch-Disp20         =     0.000659492834 [Eh]
    Exch-Disp20 (SS)    =     0.000426480753 [Eh]
    Exch-Disp20 (OS)    =     0.000233012080 [Eh]

    SAPT Results 
  --------------------------------------------------------------------------------------------------------
    Electrostatics                 -2.51024405 [mEh]      -1.57520192 [kcal/mol]      -6.59064484 [kJ/mol]
      Elst10,r                     -2.51024405 [mEh]      -1.57520192 [kcal/mol]      -6.59064484 [kJ/mol]

    Exchange                        5.99386058 [mEh]       3.76120430 [kcal/mol]      15.73687878 [kJ/mol]
      Exch10                        5.99386058 [mEh]       3.76120430 [kcal/mol]      15.73687878 [kJ/mol]
      Exch10(S^2)                   5.98603864 [mEh]       3.75629596 [kcal/mol]      15.71634229 [kJ/mol]

    Induction                      -0.93361981 [mEh]      -0.58585528 [kcal/mol]      -2.45121847 [kJ/mol]
      Ind20,r                      -1.51429923 [mEh]      -0.95023712 [kcal/mol]      -3.97579209 [kJ/mol]
      Exch-Ind20,r                  1.01401714 [mEh]       0.63630536 [kcal/mol]       2.66230164 [kJ/mol]
      delta HF,r (2)               -0.43333772 [mEh]      -0.27192353 [kcal/mol]      -1.13772803 [kJ/mol]

    Dispersion                     -6.93076263 [mEh]      -4.34911921 [kcal/mol]     -18.19671479 [kJ/mol]
      Disp20                       -7.59025547 [mEh]      -4.76295721 [kcal/mol]     -19.92821298 [kJ/mol]
      Exch-Disp20                   0.65949283 [mEh]       0.41383800 [kcal/mol]       1.73149820 [kJ/mol]
      Disp20 (SS)                  -3.79512773 [mEh]      -2.38147861 [kcal/mol]      -9.96410649 [kJ/mol]
      Disp20 (OS)                  -3.79512773 [mEh]      -2.38147861 [kcal/mol]      -9.96410649 [kJ/mol]
      Exch-Disp20 (SS)              0.42648075 [mEh]       0.26762071 [kcal/mol]       1.11972506 [kJ/mol]
      Exch-Disp20 (OS)              0.23301208 [mEh]       0.14621729 [kcal/mol]       0.61177313 [kJ/mol]

  Total HF                          2.54999672 [mEh]       1.60014710 [kcal/mol]       6.69501546 [kJ/mol]
  Total SAPT0                      -4.38076591 [mEh]      -2.74897211 [kcal/mol]     -11.50169933 [kJ/mol]

  Special recipe for scaled SAPT0 (see Manual):
    Electrostatics sSAPT0          -2.51024405 [mEh]      -1.57520192 [kcal/mol]      -6.59064484 [kJ/mol]
    Exchange sSAPT0                 5.99386058 [mEh]       3.76120430 [kcal/mol]      15.73687878 [kJ/mol]
    Induction sSAPT0               -0.92963958 [mEh]      -0.58335764 [kcal/mol]      -2.44076837 [kJ/mol]
    Dispersion sSAPT0              -6.92817398 [mEh]      -4.34749481 [kcal/mol]     -18.18991829 [kJ/mol]
  Total sSAPT0                     -4.37419703 [mEh]      -2.74485008 [kcal/mol]     -11.48445273 [kJ/mol]
  --------------------------------------------------------------------------------------------------------

*** tstop() called on r282 at Fri Sep 10 22:48:34 2021
Module time:
	user time   =      95.44 seconds =       1.59 minutes
	system time =      15.80 seconds =       0.26 minutes
	total time  =        112 seconds =       1.87 minutes
Total time:
	user time   =     222.31 seconds =       3.71 minutes
	system time =      18.41 seconds =       0.31 minutes
	total time  =        241 seconds =       4.02 minutes

    Psi4 stopped on: Friday, 10 September 2021 10:48PM
    Psi4 wall time for execution: 0:04:01.18

*** Psi4 exiting successfully. Buy a developer a beer!
