
    -----------------------------------------------------------------------
          Psi4: An Open-Source Ab Initio Electronic Structure Package
                               Psi4 1.3.2 release

                         Git: Rev {HEAD} ecbda83 


    R. M. Parrish, L. A. Burns, D. G. A. Smith, A. C. Simmonett,
    A. E. DePrince III, E. G. Hohenstein, U. Bozkaya, A. Yu. Sokolov,
    R. Di Remigio, R. M. Richard, J. F. Gonthier, A. M. James,
    H. R. McAlexander, A. Kumar, M. Saitow, X. Wang, B. P. Pritchard,
    P. Verma, H. F. Schaefer III, K. Patkowski, R. A. King, E. F. Valeev,
    F. A. Evangelista, J. M. Turney, T. D. Crawford, and C. D. Sherrill,
    J. Chem. Theory Comput. 13(7) pp 3185--3197 (2017).
    (doi: 10.1021/acs.jctc.7b00174)


                         Additional Contributions by
    P. Kraus, H. Kruse, M. H. Lechner, M. C. Schieber, R. A. Shaw,
    A. Alenaizan, R. Galvelis, Z. L. Glick, S. Lehtola, and J. P. Misiewicz

    -----------------------------------------------------------------------


    Psi4 started on: Friday, 10 September 2021 10:39PM

    Process ID: 57273
    Host:       r282
    PSIDATADIR: /home/r08543048/miniconda3/share/psi4
    Memory:     500.0 MiB
    Threads:    1
    
  ==> Input File <==

--------------------------------------------------------------------------
# Any line starting with the # character is a comment line
#! Sample  computation

memory 22 gb

molecule Dimer {
0 1
 C  1.744724    0.505422    0.593816
 C  1.834210   -0.885972   -0.009447
 H  1.110761    0.464514    1.484954
 H  2.741540    0.792911    0.937992
 O  0.568922   -1.380672   -0.446643
 H  2.457267   -0.867395   -0.903879
 H  2.290768   -1.579826    0.702694
 H -0.015508   -1.401460    0.319283
 C  1.205774    1.536841   -0.388530
 H  1.133817    2.521656    0.071546
 H  1.861744    1.617513   -1.256222
 H  0.217397    1.251932   -0.745250
 
 
 
    
    
    
 --
0 1
 C  -2.635518    0.151469   -0.648108
 C  -2.370153   -0.006315    0.844729
 H  -2.737665    1.202277   -0.916882
 H  -3.555256   -0.355301   -0.937490
 H  -1.820865   -0.268134   -1.236726
 H  -3.182936    0.407553    1.440508
 H  -1.454725    0.508140    1.138436
 H  -2.271936   -1.057678    1.119422

 
 
 







units angstrom

no_reorient
symmetry c1
}

set globals{
  basis jun-cc-pvtz
}

energy('sapt0')


--------------------------------------------------------------------------

  Memory set to  20.489 GiB by Python driver.

  //>>>>>>>>>>>>>>>>>>>>>>>>>>>>>>>>>>>//
  //              Dimer HF             //
  //<<<<<<<<<<<<<<<<<<<<<<<<<<<<<<<<<<<//


*** tstart() called on r282
*** at Fri Sep 10 22:39:54 2021

   => Loading Basis Set <=

    Name: JUN-CC-PVTZ
    Role: ORBITAL
    Keyword: BASIS
    atoms 1-2, 9, 13-14          entry C          line   217 file /home/r08543048/miniconda3/share/psi4/basis/jun-cc-pvtz.gbs 
    atoms 3-4, 6-8, 10-12, 15-20 entry H          line    36 file /home/r08543048/miniconda3/share/psi4/basis/jun-cc-pvtz.gbs 
    atoms 5                      entry O          line   305 file /home/r08543048/miniconda3/share/psi4/basis/jun-cc-pvtz.gbs 


         ---------------------------------------------------------
                                   SCF
               by Justin Turney, Rob Parrish, Andy Simmonett
                          and Daniel G. A. Smith
                              RHF Reference
                        1 Threads,  20980 MiB Core
         ---------------------------------------------------------

  ==> Geometry <==

    Molecular point group: c1
    Full point group: C1

    Geometry (in Angstrom), charge = 0, multiplicity = 1:

       Center              X                  Y                   Z               Mass       
    ------------   -----------------  -----------------  -----------------  -----------------
         C            1.709237796157     0.540984737736     0.607206865145    12.000000000000
         C            1.798723796157    -0.850409262264     0.003943865145    12.000000000000
         H            1.075274796157     0.500076737736     1.498344865145     1.007825032230
         H            2.706053796157     0.828473737736     0.951382865145     1.007825032230
         O            0.533435796157    -1.345109262264    -0.433252134855    15.994914619570
         H            2.421780796157    -0.831832262264    -0.890488134855     1.007825032230
         H            2.255281796157    -1.544263262264     0.716084865145     1.007825032230
         H           -0.050994203843    -1.365897262264     0.332673865145     1.007825032230
         C            1.170287796157     1.572403737736    -0.375139134855    12.000000000000
         H            1.098330796157     2.557218737736     0.084936865145     1.007825032230
         H            1.826257796157     1.653075737736    -1.242831134855     1.007825032230
         H            0.181910796157     1.287494737736    -0.731859134855     1.007825032230
         C           -2.671004203843     0.187031737736    -0.634717134855    12.000000000000
         C           -2.405639203843     0.029247737736     0.858119865145    12.000000000000
         H           -2.773151203843     1.237839737736    -0.903491134855     1.007825032230
         H           -3.590742203843    -0.319738262264    -0.924099134855     1.007825032230
         H           -1.856351203843    -0.232571262264    -1.223335134855     1.007825032230
         H           -3.218422203843     0.443115737736     1.453898865145     1.007825032230
         H           -1.490211203843     0.543702737736     1.151826865145     1.007825032230
         H           -2.307422203843    -1.022115262264     1.132812865145     1.007825032230

  Running in c1 symmetry.

  Rotational constants: A =      0.13083  B =      0.04766  C =      0.04133 [cm^-1]
  Rotational constants: A =   3922.22600  B =   1428.73525  C =   1238.91841 [MHz]
  Nuclear repulsion =  254.459828138258530

  Charge       = 0
  Multiplicity = 1
  Electrons    = 52
  Nalpha       = 26
  Nbeta        = 26

  ==> Algorithm <==

  SCF Algorithm Type is DF.
  DIIS enabled.
  MOM disabled.
  Fractional occupation disabled.
  Guess Type is SAD.
  Energy threshold   = 1.00e-08
  Density threshold  = 1.00e-08
  Integral threshold = 0.00e+00

  ==> Primary Basis <==

  Basis Set: JUN-CC-PVTZ
    Blend: JUN-CC-PVTZ
    Number of shells: 162
    Number of basis function: 430
    Number of Cartesian functions: 480
    Spherical Harmonics?: true
    Max angular momentum: 3

   => Loading Basis Set <=

    Name: (JUN-CC-PVTZ AUX)
    Role: JKFIT
    Keyword: DF_BASIS_SCF
    atoms 1-2, 9, 13-14          entry C          line   152 file /home/r08543048/miniconda3/share/psi4/basis/jun-cc-pvtz-jkfit.gbs 
    atoms 3-4, 6-8, 10-12, 15-20 entry H          line    70 file /home/r08543048/miniconda3/share/psi4/basis/jun-cc-pvtz-jkfit.gbs 
    atoms 5                      entry O          line   272 file /home/r08543048/miniconda3/share/psi4/basis/jun-cc-pvtz-jkfit.gbs 

  ==> Pre-Iterations <==

   -------------------------------------------------------
    Irrep   Nso     Nmo     Nalpha   Nbeta   Ndocc  Nsocc
   -------------------------------------------------------
     A        430     430       0       0       0       0
   -------------------------------------------------------
    Total     430     430      26      26      26       0
   -------------------------------------------------------

  ==> Integral Setup <==

  ==> DiskDFJK: Density-Fitted J/K Matrices <==

    J tasked:                  Yes
    K tasked:                  Yes
    wK tasked:                  No
    OpenMP threads:              1
    Integrals threads:           1
    Memory [MiB]:            15735
    Algorithm:                Core
    Integral Cache:           SAVE
    Schwarz Cutoff:          1E-12
    Fitting Condition:       1E-10

   => Auxiliary Basis Set <=

  Basis Set: (JUN-CC-PVTZ AUX)
    Blend: JUN-CC-PVTZ-JKFIT
    Number of shells: 314
    Number of basis function: 990
    Number of Cartesian functions: 1186
    Spherical Harmonics?: true
    Max angular momentum: 4

  Minimum eigenvalue in the overlap matrix is 8.0723201871E-05.
  Using Symmetric Orthogonalization.

  SCF Guess: Superposition of Atomic Densities via on-the-fly atomic UHF.

  ==> Iterations <==

                           Total Energy        Delta E     RMS |[F,P]|

   @DF-RHF iter SAD:  -271.27975032863378   -2.71280e+02   0.00000e+00 
   @DF-RHF iter   1:  -272.16242233871100   -8.82672e-01   1.64931e-03 DIIS
   @DF-RHF iter   2:  -272.39185732123576   -2.29435e-01   8.19119e-04 DIIS
   @DF-RHF iter   3:  -272.44627827508197   -5.44210e-02   1.46723e-04 DIIS
   @DF-RHF iter   4:  -272.44966370948941   -3.38543e-03   5.40503e-05 DIIS
   @DF-RHF iter   5:  -272.44995823014341   -2.94521e-04   1.21993e-05 DIIS
   @DF-RHF iter   6:  -272.44998007440876   -2.18443e-05   2.48965e-06 DIIS
   @DF-RHF iter   7:  -272.44998132715170   -1.25274e-06   6.31875e-07 DIIS
   @DF-RHF iter   8:  -272.44998140061608   -7.34644e-08   2.05193e-07 DIIS
   @DF-RHF iter   9:  -272.44998140907876   -8.46268e-09   5.65718e-08 DIIS
   @DF-RHF iter  10:  -272.44998140984177   -7.63009e-10   1.36355e-08 DIIS
   @DF-RHF iter  11:  -272.44998140987991   -3.81419e-11   2.94301e-09 DIIS
  Energy and wave function converged.


  ==> Post-Iterations <==

    Orbital Energies [Eh]
    ---------------------

    Doubly Occupied:                                                      

       1A    -20.553453     2A    -11.270889     3A    -11.222690  
       4A    -11.215569     5A    -11.209686     6A    -11.207718  
       7A     -1.354875     8A     -1.051621     9A     -1.020819  
      10A     -0.920437    11A     -0.843848    12A     -0.811924  
      13A     -0.673766    14A     -0.638778    15A     -0.629034  
      16A     -0.600735    17A     -0.598449    18A     -0.562143  
      19A     -0.533004    20A     -0.520294    21A     -0.511379  
      22A     -0.490667    23A     -0.488358    24A     -0.483841  
      25A     -0.470242    26A     -0.437076  

    Virtual:                                                              

      27A      0.049990    28A      0.055117    29A      0.059344  
      30A      0.062309    31A      0.073312    32A      0.082750  
      33A      0.086771    34A      0.094067    35A      0.097610  
      36A      0.114470    37A      0.119216    38A      0.119704  
      39A      0.122747    40A      0.129147    41A      0.139677  
      42A      0.150458    43A      0.174539    44A      0.183150  
      45A      0.191764    46A      0.204269    47A      0.222982  
      48A      0.224336    49A      0.230880    50A      0.247714  
      51A      0.272749    52A      0.277762    53A      0.280089  
      54A      0.282109    55A      0.285935    56A      0.289997  
      57A      0.299496    58A      0.308150    59A      0.317864  
      60A      0.323396    61A      0.324717    62A      0.329428  
      63A      0.339162    64A      0.343073    65A      0.349892  
      66A      0.351603    67A      0.354831    68A      0.358911  
      69A      0.364124    70A      0.377119    71A      0.378877  
      72A      0.389329    73A      0.392974    74A      0.409352  
      75A      0.413598    76A      0.426541    77A      0.433026  
      78A      0.453882    79A      0.460621    80A      0.472645  
      81A      0.486849    82A      0.493165    83A      0.502079  
      84A      0.506069    85A      0.517402    86A      0.526503  
      87A      0.533108    88A      0.536572    89A      0.553867  
      90A      0.562617    91A      0.568150    92A      0.574756  
      93A      0.612530    94A      0.644102    95A      0.646451  
      96A      0.651724    97A      0.669442    98A      0.674475  
      99A      0.685412   100A      0.711808   101A      0.723330  
     102A      0.729194   103A      0.734753   104A      0.737109  
     105A      0.754003   106A      0.760436   107A      0.765332  
     108A      0.781593   109A      0.792517   110A      0.795982  
     111A      0.807568   112A      0.818260   113A      0.819757  
     114A      0.826810   115A      0.828889   116A      0.842755  
     117A      0.848858   118A      0.858256   119A      0.868332  
     120A      0.882502   121A      0.888833   122A      0.898554  
     123A      0.920391   124A      0.934979   125A      0.948860  
     126A      0.959143   127A      0.965423   128A      0.976053  
     129A      0.994998   130A      1.013159   131A      1.019322  
     132A      1.027628   133A      1.035486   134A      1.047542  
     135A      1.062143   136A      1.080938   137A      1.101608  
     138A      1.114575   139A      1.147362   140A      1.161439  
     141A      1.186373   142A      1.197314   143A      1.233064  
     144A      1.236129   145A      1.264482   146A      1.286594  
     147A      1.300514   148A      1.307133   149A      1.325524  
     150A      1.335209   151A      1.347652   152A      1.354716  
     153A      1.358202   154A      1.367731   155A      1.380294  
     156A      1.382415   157A      1.407724   158A      1.413644  
     159A      1.416168   160A      1.438151   161A      1.452607  
     162A      1.463866   163A      1.469054   164A      1.485273  
     165A      1.506082   166A      1.514586   167A      1.526448  
     168A      1.535341   169A      1.543638   170A      1.563800  
     171A      1.568597   172A      1.591836   173A      1.604565  
     174A      1.615943   175A      1.618204   176A      1.626949  
     177A      1.647970   178A      1.648681   179A      1.669980  
     180A      1.678592   181A      1.680542   182A      1.691518  
     183A      1.701165   184A      1.715598   185A      1.737590  
     186A      1.747884   187A      1.761904   188A      1.777383  
     189A      1.792132   190A      1.808306   191A      1.844267  
     192A      1.856058   193A      1.871352   194A      1.875396  
     195A      1.900325   196A      1.918989   197A      1.939745  
     198A      1.956222   199A      1.986532   200A      1.999418  
     201A      2.024640   202A      2.070690   203A      2.209571  
     204A      2.371434   205A      2.432026   206A      2.462280  
     207A      2.512303   208A      2.588662   209A      2.712595  
     210A      2.745718   211A      2.764009   212A      2.793139  
     213A      2.800981   214A      2.814632   215A      2.829193  
     216A      2.836047   217A      2.842394   218A      2.851896  
     219A      2.888745   220A      2.895422   221A      2.929806  
     222A      2.948018   223A      2.961499   224A      2.969275  
     225A      2.984334   226A      3.009396   227A      3.049512  
     228A      3.077391   229A      3.089934   230A      3.097435  
     231A      3.116564   232A      3.124256   233A      3.151881  
     234A      3.174502   235A      3.182725   236A      3.189609  
     237A      3.197862   238A      3.209036   239A      3.229709  
     240A      3.236841   241A      3.274664   242A      3.282133  
     243A      3.291598   244A      3.306821   245A      3.312341  
     246A      3.320226   247A      3.338707   248A      3.349430  
     249A      3.364491   250A      3.391275   251A      3.403822  
     252A      3.408789   253A      3.426121   254A      3.434513  
     255A      3.447277   256A      3.458640   257A      3.463786  
     258A      3.468516   259A      3.484673   260A      3.491120  
     261A      3.502853   262A      3.514517   263A      3.523104  
     264A      3.536534   265A      3.542100   266A      3.545783  
     267A      3.559252   268A      3.574696   269A      3.585134  
     270A      3.610799   271A      3.621329   272A      3.635011  
     273A      3.659134   274A      3.678354   275A      3.680869  
     276A      3.710965   277A      3.719477   278A      3.738177  
     279A      3.743230   280A      3.764131   281A      3.786791  
     282A      3.799920   283A      3.822522   284A      3.832804  
     285A      3.840109   286A      3.864240   287A      3.872792  
     288A      3.887422   289A      3.903457   290A      3.905333  
     291A      3.910538   292A      3.915714   293A      3.941140  
     294A      3.948078   295A      3.962738   296A      3.984523  
     297A      3.986274   298A      4.035281   299A      4.082852  
     300A      4.104610   301A      4.122481   302A      4.150374  
     303A      4.167760   304A      4.181582   305A      4.185446  
     306A      4.202698   307A      4.217836   308A      4.226265  
     309A      4.233046   310A      4.237129   311A      4.263271  
     312A      4.267309   313A      4.276717   314A      4.291607  
     315A      4.304772   316A      4.319852   317A      4.348291  
     318A      4.365003   319A      4.365978   320A      4.391622  
     321A      4.396310   322A      4.413638   323A      4.421080  
     324A      4.423718   325A      4.444569   326A      4.458266  
     327A      4.469261   328A      4.482252   329A      4.490492  
     330A      4.495670   331A      4.499377   332A      4.510662  
     333A      4.519099   334A      4.536520   335A      4.542694  
     336A      4.556190   337A      4.567116   338A      4.589106  
     339A      4.612306   340A      4.642942   341A      4.644129  
     342A      4.674447   343A      4.683155   344A      4.695376  
     345A      4.722338   346A      4.734022   347A      4.764855  
     348A      4.786267   349A      4.796146   350A      4.808116  
     351A      4.814656   352A      4.831994   353A      4.854906  
     354A      4.881848   355A      4.924649   356A      4.955442  
     357A      4.992773   358A      5.038631   359A      5.070336  
     360A      5.136662   361A      5.158152   362A      5.176476  
     363A      5.194295   364A      5.207715   365A      5.213522  
     366A      5.222173   367A      5.257494   368A      5.267984  
     369A      5.277216   370A      5.291415   371A      5.304781  
     372A      5.309658   373A      5.322843   374A      5.330840  
     375A      5.352227   376A      5.363465   377A      5.383823  
     378A      5.401155   379A      5.471961   380A      5.488143  
     381A      5.520796   382A      5.579862   383A      5.602924  
     384A      5.663897   385A      5.692766   386A      5.703748  
     387A      5.747217   388A      5.755204   389A      5.760643  
     390A      5.766145   391A      5.771177   392A      5.784056  
     393A      5.788968   394A      5.802839   395A      5.829527  
     396A      5.839981   397A      5.890494   398A      5.910426  
     399A      5.920543   400A      5.926929   401A      5.938725  
     402A      5.944567   403A      5.993995   404A      6.076758  
     405A      6.116363   406A      6.291866   407A      6.443489  
     408A      6.450332   409A      6.465250   410A      6.479506  
     411A      6.494188   412A      6.506495   413A      6.546237  
     414A      6.564403   415A      6.603745   416A      6.935096  
     417A      7.079971   418A      7.235118   419A      7.326751  
     420A      7.390193   421A      7.546751   422A      7.631836  
     423A      7.867936   424A      8.156750   425A     13.644156  
     426A     13.881923   427A     14.061703   428A     14.291149  
     429A     14.636958   430A     14.760367  

    Final Occupation by Irrep:
              A 
    DOCC [    26 ]

  @DF-RHF Final Energy:  -272.44998140987991

   => Energetics <=

    Nuclear Repulsion Energy =            254.4598281382585299
    One-Electron Energy =                -873.1770275245164612
    Two-Electron Energy =                 346.2672179763779923
    Total Energy =                       -272.4499814098799106

Computation Completed


Properties will be evaluated at   0.000000,   0.000000,   0.000000 [a0]

Properties computed using the SCF density matrix

  Nuclear Dipole Moment: [e a0]
     X:    -3.4871      Y:     3.4946      Z:     1.3159

  Electronic Dipole Moment: [e a0]
     X:     3.6530      Y:    -3.2319      Z:    -0.7252

  Dipole Moment: [e a0]
     X:     0.1659      Y:     0.2627      Z:     0.5907     Total:     0.6674

  Dipole Moment: [D]
     X:     0.4216      Y:     0.6676      Z:     1.5014     Total:     1.6963


*** tstop() called on r282 at Fri Sep 10 22:40:31 2021
Module time:
	user time   =      36.08 seconds =       0.60 minutes
	system time =       0.92 seconds =       0.02 minutes
	total time  =         37 seconds =       0.62 minutes
Total time:
	user time   =      36.08 seconds =       0.60 minutes
	system time =       0.92 seconds =       0.02 minutes
	total time  =         37 seconds =       0.62 minutes

  //>>>>>>>>>>>>>>>>>>>>>>>>>>>>>>>>>>>//
  //            Monomer A HF           //
  //<<<<<<<<<<<<<<<<<<<<<<<<<<<<<<<<<<<//


*** tstart() called on r282
*** at Fri Sep 10 22:40:31 2021

   => Loading Basis Set <=

    Name: JUN-CC-PVTZ
    Role: ORBITAL
    Keyword: BASIS
    atoms 1-2, 9, 13-14          entry C          line   217 file /home/r08543048/miniconda3/share/psi4/basis/jun-cc-pvtz.gbs 
    atoms 3-4, 6-8, 10-12, 15-20 entry H          line    36 file /home/r08543048/miniconda3/share/psi4/basis/jun-cc-pvtz.gbs 
    atoms 5                      entry O          line   305 file /home/r08543048/miniconda3/share/psi4/basis/jun-cc-pvtz.gbs 


         ---------------------------------------------------------
                                   SCF
               by Justin Turney, Rob Parrish, Andy Simmonett
                          and Daniel G. A. Smith
                              RHF Reference
                        1 Threads,  20980 MiB Core
         ---------------------------------------------------------

  ==> Geometry <==

    Molecular point group: c1
    Full point group: C1

    Geometry (in Angstrom), charge = 0, multiplicity = 1:

       Center              X                  Y                   Z               Mass       
    ------------   -----------------  -----------------  -----------------  -----------------
         C            1.709237796157     0.540984737736     0.607206865145    12.000000000000
         C            1.798723796157    -0.850409262264     0.003943865145    12.000000000000
         H            1.075274796157     0.500076737736     1.498344865145     1.007825032230
         H            2.706053796157     0.828473737736     0.951382865145     1.007825032230
         O            0.533435796157    -1.345109262264    -0.433252134855    15.994914619570
         H            2.421780796157    -0.831832262264    -0.890488134855     1.007825032230
         H            2.255281796157    -1.544263262264     0.716084865145     1.007825032230
         H           -0.050994203843    -1.365897262264     0.332673865145     1.007825032230
         C            1.170287796157     1.572403737736    -0.375139134855    12.000000000000
         H            1.098330796157     2.557218737736     0.084936865145     1.007825032230
         H            1.826257796157     1.653075737736    -1.242831134855     1.007825032230
         H            0.181910796157     1.287494737736    -0.731859134855     1.007825032230
      Gh(C)          -2.671004203843     0.187031737736    -0.634717134855    12.000000000000
      Gh(C)          -2.405639203843     0.029247737736     0.858119865145    12.000000000000
      Gh(H)          -2.773151203843     1.237839737736    -0.903491134855     1.007825032230
      Gh(H)          -3.590742203843    -0.319738262264    -0.924099134855     1.007825032230
      Gh(H)          -1.856351203843    -0.232571262264    -1.223335134855     1.007825032230
      Gh(H)          -3.218422203843     0.443115737736     1.453898865145     1.007825032230
      Gh(H)          -1.490211203843     0.543702737736     1.151826865145     1.007825032230
      Gh(H)          -2.307422203843    -1.022115262264     1.132812865145     1.007825032230

  Running in c1 symmetry.

  Rotational constants: A =      0.13083  B =      0.04766  C =      0.04133 [cm^-1]
  Rotational constants: A =   3922.22600  B =   1428.73525  C =   1238.91841 [MHz]
  Nuclear repulsion =  132.823641077977726

  Charge       = 0
  Multiplicity = 1
  Electrons    = 34
  Nalpha       = 17
  Nbeta        = 17

  ==> Algorithm <==

  SCF Algorithm Type is DF.
  DIIS enabled.
  MOM disabled.
  Fractional occupation disabled.
  Guess Type is SAD.
  Energy threshold   = 1.00e-08
  Density threshold  = 1.00e-08
  Integral threshold = 0.00e+00

  ==> Primary Basis <==

  Basis Set: JUN-CC-PVTZ
    Blend: JUN-CC-PVTZ
    Number of shells: 162
    Number of basis function: 430
    Number of Cartesian functions: 480
    Spherical Harmonics?: true
    Max angular momentum: 3

   => Loading Basis Set <=

    Name: (JUN-CC-PVTZ AUX)
    Role: JKFIT
    Keyword: DF_BASIS_SCF
    atoms 1-2, 9, 13-14          entry C          line   152 file /home/r08543048/miniconda3/share/psi4/basis/jun-cc-pvtz-jkfit.gbs 
    atoms 3-4, 6-8, 10-12, 15-20 entry H          line    70 file /home/r08543048/miniconda3/share/psi4/basis/jun-cc-pvtz-jkfit.gbs 
    atoms 5                      entry O          line   272 file /home/r08543048/miniconda3/share/psi4/basis/jun-cc-pvtz-jkfit.gbs 

  ==> Pre-Iterations <==

   -------------------------------------------------------
    Irrep   Nso     Nmo     Nalpha   Nbeta   Ndocc  Nsocc
   -------------------------------------------------------
     A        430     430       0       0       0       0
   -------------------------------------------------------
    Total     430     430      17      17      17       0
   -------------------------------------------------------

  ==> Integral Setup <==

  ==> DiskDFJK: Density-Fitted J/K Matrices <==

    J tasked:                  Yes
    K tasked:                  Yes
    wK tasked:                  No
    OpenMP threads:              1
    Integrals threads:           1
    Memory [MiB]:            15735
    Algorithm:                Core
    Integral Cache:           LOAD
    Schwarz Cutoff:          1E-12
    Fitting Condition:       1E-10

   => Auxiliary Basis Set <=

  Basis Set: (JUN-CC-PVTZ AUX)
    Blend: JUN-CC-PVTZ-JKFIT
    Number of shells: 314
    Number of basis function: 990
    Number of Cartesian functions: 1186
    Spherical Harmonics?: true
    Max angular momentum: 4

  Minimum eigenvalue in the overlap matrix is 8.0723201871E-05.
  Using Symmetric Orthogonalization.

  SCF Guess: Superposition of Atomic Densities via on-the-fly atomic UHF.

  ==> Iterations <==

                           Total Energy        Delta E     RMS |[F,P]|

   @DF-RHF iter SAD:  -192.49993985997779   -1.92500e+02   0.00000e+00 
   @DF-RHF iter   1:  -193.01179472653584   -5.11855e-01   1.32790e-03 DIIS
   @DF-RHF iter   2:  -193.15250319194641   -1.40708e-01   7.01830e-04 DIIS
   @DF-RHF iter   3:  -193.18936863558343   -3.68654e-02   1.19473e-04 DIIS
   @DF-RHF iter   4:  -193.19146712134742   -2.09849e-03   4.33749e-05 DIIS
   @DF-RHF iter   5:  -193.19166411731993   -1.96996e-04   9.89884e-06 DIIS
   @DF-RHF iter   6:  -193.19167843318610   -1.43159e-05   2.05463e-06 DIIS
   @DF-RHF iter   7:  -193.19167937805713   -9.44871e-07   5.14083e-07 DIIS
   @DF-RHF iter   8:  -193.19167943290540   -5.48483e-08   1.72370e-07 DIIS
   @DF-RHF iter   9:  -193.19167943898179   -6.07639e-09   4.64092e-08 DIIS
   @DF-RHF iter  10:  -193.19167943949603   -5.14234e-10   1.01314e-08 DIIS
   @DF-RHF iter  11:  -193.19167943951859   -2.25668e-11   2.61152e-09 DIIS
  Energy and wave function converged.


  ==> Post-Iterations <==

    Orbital Energies [Eh]
    ---------------------

    Doubly Occupied:                                                      

       1A    -20.554826     2A    -11.271324     3A    -11.223089  
       4A    -11.209902     5A     -1.355358     6A     -1.051734  
       7A     -0.920557     8A     -0.812117     9A     -0.673782  
      10A     -0.637977    11A     -0.627854    12A     -0.564650  
      13A     -0.532827    14A     -0.520257    15A     -0.485315  
      16A     -0.471670    17A     -0.437814  

    Virtual:                                                              

      18A      0.035981    19A      0.048742    20A      0.055806  
      21A      0.058547    22A      0.071344    23A      0.076705  
      24A      0.082206    25A      0.092113    26A      0.097400  
      27A      0.106726    28A      0.115023    29A      0.116435  
      30A      0.119160    31A      0.121704    32A      0.138004  
      33A      0.146773    34A      0.157196    35A      0.160186  
      36A      0.188308    37A      0.196749    38A      0.209377  
      39A      0.217827    40A      0.225434    41A      0.237490  
      42A      0.250006    43A      0.265060    44A      0.272128  
      45A      0.281319    46A      0.281495    47A      0.285867  
      48A      0.291483    49A      0.299766    50A      0.311894  
      51A      0.317803    52A      0.323734    53A      0.338442  
      54A      0.343806    55A      0.344442    56A      0.351065  
      57A      0.353770    58A      0.363845    59A      0.370549  
      60A      0.378794    61A      0.384031    62A      0.390427  
      63A      0.394259    64A      0.406678    65A      0.416339  
      66A      0.422099    67A      0.426552    68A      0.437536  
      69A      0.445339    70A      0.470330    71A      0.477474  
      72A      0.489985    73A      0.495846    74A      0.501065  
      75A      0.508740    76A      0.515379    77A      0.525492  
      78A      0.530999    79A      0.543845    80A      0.551908  
      81A      0.561126    82A      0.566201    83A      0.571576  
      84A      0.596666    85A      0.604787    86A      0.618820  
      87A      0.627662    88A      0.636526    89A      0.650376  
      90A      0.654809    91A      0.662363    92A      0.678490  
      93A      0.694806    94A      0.700516    95A      0.723850  
      96A      0.742258    97A      0.755164    98A      0.768889  
      99A      0.775955   100A      0.790542   101A      0.805187  
     102A      0.819239   103A      0.826418   104A      0.831668  
     105A      0.854029   106A      0.868193   107A      0.875810  
     108A      0.881661   109A      0.901362   110A      0.928480  
     111A      0.933191   112A      0.966722   113A      0.975122  
     114A      1.002059   115A      1.014914   116A      1.025240  
     117A      1.038970   118A      1.056181   119A      1.063672  
     120A      1.072248   121A      1.085921   122A      1.110201  
     123A      1.112892   124A      1.125251   125A      1.127484  
     126A      1.142517   127A      1.156263   128A      1.176668  
     129A      1.182780   130A      1.210342   131A      1.224042  
     132A      1.227711   133A      1.234329   134A      1.248306  
     135A      1.256158   136A      1.265968   137A      1.282982  
     138A      1.294265   139A      1.309897   140A      1.320388  
     141A      1.330651   142A      1.337118   143A      1.349115  
     144A      1.361129   145A      1.377666   146A      1.384079  
     147A      1.396749   148A      1.400294   149A      1.403680  
     150A      1.431888   151A      1.442402   152A      1.454578  
     153A      1.480043   154A      1.484551   155A      1.507717  
     156A      1.520394   157A      1.527256   158A      1.530622  
     159A      1.545700   160A      1.548853   161A      1.558383  
     162A      1.574294   163A      1.583621   164A      1.588802  
     165A      1.602782   166A      1.618538   167A      1.629959  
     168A      1.648838   169A      1.652472   170A      1.676979  
     171A      1.683020   172A      1.692439   173A      1.701305  
     174A      1.728274   175A      1.743782   176A      1.747771  
     177A      1.757143   178A      1.780560   179A      1.797089  
     180A      1.811667   181A      1.833500   182A      1.839145  
     183A      1.854689   184A      1.887947   185A      1.899904  
     186A      1.946114   187A      1.971412   188A      1.990812  
     189A      2.015023   190A      2.020782   191A      2.069726  
     192A      2.081045   193A      2.100265   194A      2.201647  
     195A      2.247890   196A      2.292370   197A      2.334565  
     198A      2.394196   199A      2.410032   200A      2.419227  
     201A      2.442265   202A      2.467186   203A      2.516294  
     204A      2.523598   205A      2.561964   206A      2.635091  
     207A      2.801175   208A      2.817566   209A      2.832726  
     210A      2.848783   211A      2.889937   212A      2.890346  
     213A      2.932619   214A      2.956102   215A      2.975993  
     216A      3.013121   217A      3.052815   218A      3.099024  
     219A      3.118806   220A      3.151003   221A      3.178575  
     222A      3.189101   223A      3.224019   224A      3.263904  
     225A      3.290762   226A      3.306760   227A      3.333653  
     228A      3.364752   229A      3.377471   230A      3.396454  
     231A      3.402202   232A      3.432956   233A      3.449637  
     234A      3.455487   235A      3.471907   236A      3.480389  
     237A      3.501909   238A      3.516983   239A      3.521470  
     240A      3.534797   241A      3.541840   242A      3.549591  
     243A      3.560482   244A      3.568373   245A      3.571249  
     246A      3.584319   247A      3.593980   248A      3.617146  
     249A      3.626562   250A      3.638433   251A      3.650612  
     252A      3.676708   253A      3.696746   254A      3.708886  
     255A      3.730236   256A      3.739056   257A      3.763235  
     258A      3.788309   259A      3.791313   260A      3.799514  
     261A      3.801126   262A      3.829387   263A      3.836905  
     264A      3.843350   265A      3.870894   266A      3.905896  
     267A      3.908831   268A      3.917334   269A      3.926180  
     270A      3.934725   271A      3.953502   272A      3.970653  
     273A      3.972651   274A      4.018783   275A      4.039386  
     276A      4.067084   277A      4.072990   278A      4.082234  
     279A      4.103718   280A      4.118806   281A      4.125402  
     282A      4.154550   283A      4.164010   284A      4.184800  
     285A      4.202812   286A      4.229011   287A      4.247557  
     288A      4.251225   289A      4.265404   290A      4.302175  
     291A      4.327937   292A      4.336414   293A      4.354101  
     294A      4.363683   295A      4.364366   296A      4.375599  
     297A      4.391509   298A      4.406638   299A      4.410351  
     300A      4.425316   301A      4.439004   302A      4.447418  
     303A      4.460085   304A      4.470322   305A      4.481060  
     306A      4.492496   307A      4.508144   308A      4.513125  
     309A      4.515648   310A      4.536746   311A      4.537204  
     312A      4.563419   313A      4.576649   314A      4.585806  
     315A      4.596945   316A      4.605606   317A      4.622655  
     318A      4.638327   319A      4.649112   320A      4.679987  
     321A      4.701703   322A      4.712502   323A      4.728611  
     324A      4.734222   325A      4.745215   326A      4.752198  
     327A      4.762970   328A      4.785172   329A      4.800725  
     330A      4.804259   331A      4.820393   332A      4.846864  
     333A      4.853796   334A      4.857988   335A      4.875952  
     336A      4.889279   337A      4.903739   338A      4.923925  
     339A      4.941260   340A      4.957401   341A      4.976239  
     342A      4.981118   343A      4.994316   344A      5.004027  
     345A      5.024206   346A      5.037662   347A      5.046139  
     348A      5.082627   349A      5.096025   350A      5.138898  
     351A      5.142260   352A      5.164552   353A      5.195658  
     354A      5.209763   355A      5.258568   356A      5.265414  
     357A      5.281501   358A      5.310317   359A      5.344499  
     360A      5.378297   361A      5.388844   362A      5.400467  
     363A      5.401697   364A      5.413528   365A      5.474994  
     366A      5.490445   367A      5.523344   368A      5.581341  
     369A      5.602992   370A      5.643965   371A      5.653939  
     372A      5.666441   373A      5.717250   374A      5.726365  
     375A      5.758951   376A      5.778606   377A      5.791040  
     378A      5.829472   379A      5.839394   380A      5.889026  
     381A      5.922729   382A      5.932238   383A      5.986524  
     384A      5.994600   385A      6.005730   386A      6.076185  
     387A      6.115348   388A      6.228565   389A      6.290299  
     390A      6.312422   391A      6.326616   392A      6.364872  
     393A      6.373612   394A      6.399865   395A      6.445818  
     396A      6.452419   397A      6.454084   398A      6.480671  
     399A      6.541166   400A      6.549277   401A      6.598421  
     402A      6.800575   403A      6.899402   404A      6.934622  
     405A      7.079285   406A      7.233097   407A      7.319362  
     408A      7.353403   409A      7.388896   410A      7.490549  
     411A      7.510793   412A      7.541472   413A      7.628094  
     414A      7.644143   415A      7.685669   416A      7.786143  
     417A      7.800110   418A      7.865358   419A      7.892108  
     420A      7.921045   421A      8.157558   422A      8.266990  
     423A      9.744521   424A      9.942953   425A     13.654721  
     426A     13.886803   427A     14.062406   428A     14.651595  
     429A     45.152041   430A     45.714140  

    Final Occupation by Irrep:
              A 
    DOCC [    17 ]

  @DF-RHF Final Energy:  -193.19167943951859

   => Energetics <=

    Nuclear Repulsion Energy =            132.8236410779777259
    One-Electron Energy =                -525.3285364538274962
    Two-Electron Energy =                 199.3132159363311473
    Total Energy =                       -193.1916794395185946

Computation Completed


Properties will be evaluated at   0.000000,   0.000000,   0.000000 [a0]

Properties computed using the SCF density matrix

  Nuclear Dipole Moment: [e a0]
     X:    82.8662      Y:    -0.1864      Z:    -2.5166

  Electronic Dipole Moment: [e a0]
     X:   -82.6784      Y:     0.4382      Z:     3.1628

  Dipole Moment: [e a0]
     X:     0.1878      Y:     0.2517      Z:     0.6462     Total:     0.7185

  Dipole Moment: [D]
     X:     0.4773      Y:     0.6399      Z:     1.6425     Total:     1.8262


*** tstop() called on r282 at Fri Sep 10 22:40:50 2021
Module time:
	user time   =      18.78 seconds =       0.31 minutes
	system time =       0.44 seconds =       0.01 minutes
	total time  =         19 seconds =       0.32 minutes
Total time:
	user time   =      54.86 seconds =       0.91 minutes
	system time =       1.36 seconds =       0.02 minutes
	total time  =         56 seconds =       0.93 minutes

  //>>>>>>>>>>>>>>>>>>>>>>>>>>>>>>>>>>>//
  //            Monomer B HF           //
  //<<<<<<<<<<<<<<<<<<<<<<<<<<<<<<<<<<<//


*** tstart() called on r282
*** at Fri Sep 10 22:40:50 2021

   => Loading Basis Set <=

    Name: JUN-CC-PVTZ
    Role: ORBITAL
    Keyword: BASIS
    atoms 1-2, 9, 13-14          entry C          line   217 file /home/r08543048/miniconda3/share/psi4/basis/jun-cc-pvtz.gbs 
    atoms 3-4, 6-8, 10-12, 15-20 entry H          line    36 file /home/r08543048/miniconda3/share/psi4/basis/jun-cc-pvtz.gbs 
    atoms 5                      entry O          line   305 file /home/r08543048/miniconda3/share/psi4/basis/jun-cc-pvtz.gbs 


         ---------------------------------------------------------
                                   SCF
               by Justin Turney, Rob Parrish, Andy Simmonett
                          and Daniel G. A. Smith
                              RHF Reference
                        1 Threads,  20980 MiB Core
         ---------------------------------------------------------

  ==> Geometry <==

    Molecular point group: c1
    Full point group: C1

    Geometry (in Angstrom), charge = 0, multiplicity = 1:

       Center              X                  Y                   Z               Mass       
    ------------   -----------------  -----------------  -----------------  -----------------
      Gh(C)           1.709237796157     0.540984737736     0.607206865145    12.000000000000
      Gh(C)           1.798723796157    -0.850409262264     0.003943865145    12.000000000000
      Gh(H)           1.075274796157     0.500076737736     1.498344865145     1.007825032230
      Gh(H)           2.706053796157     0.828473737736     0.951382865145     1.007825032230
      Gh(O)           0.533435796157    -1.345109262264    -0.433252134855    15.994914619570
      Gh(H)           2.421780796157    -0.831832262264    -0.890488134855     1.007825032230
      Gh(H)           2.255281796157    -1.544263262264     0.716084865145     1.007825032230
      Gh(H)          -0.050994203843    -1.365897262264     0.332673865145     1.007825032230
      Gh(C)           1.170287796157     1.572403737736    -0.375139134855    12.000000000000
      Gh(H)           1.098330796157     2.557218737736     0.084936865145     1.007825032230
      Gh(H)           1.826257796157     1.653075737736    -1.242831134855     1.007825032230
      Gh(H)           0.181910796157     1.287494737736    -0.731859134855     1.007825032230
         C           -2.671004203843     0.187031737736    -0.634717134855    12.000000000000
         C           -2.405639203843     0.029247737736     0.858119865145    12.000000000000
         H           -2.773151203843     1.237839737736    -0.903491134855     1.007825032230
         H           -3.590742203843    -0.319738262264    -0.924099134855     1.007825032230
         H           -1.856351203843    -0.232571262264    -1.223335134855     1.007825032230
         H           -3.218422203843     0.443115737736     1.453898865145     1.007825032230
         H           -1.490211203843     0.543702737736     1.151826865145     1.007825032230
         H           -2.307422203843    -1.022115262264     1.132812865145     1.007825032230

  Running in c1 symmetry.

  Rotational constants: A =      0.13083  B =      0.04766  C =      0.04133 [cm^-1]
  Rotational constants: A =   3922.22600  B =   1428.73525  C =   1238.91841 [MHz]
  Nuclear repulsion =   42.332143251236694

  Charge       = 0
  Multiplicity = 1
  Electrons    = 18
  Nalpha       = 9
  Nbeta        = 9

  ==> Algorithm <==

  SCF Algorithm Type is DF.
  DIIS enabled.
  MOM disabled.
  Fractional occupation disabled.
  Guess Type is SAD.
  Energy threshold   = 1.00e-08
  Density threshold  = 1.00e-08
  Integral threshold = 0.00e+00

  ==> Primary Basis <==

  Basis Set: JUN-CC-PVTZ
    Blend: JUN-CC-PVTZ
    Number of shells: 162
    Number of basis function: 430
    Number of Cartesian functions: 480
    Spherical Harmonics?: true
    Max angular momentum: 3

   => Loading Basis Set <=

    Name: (JUN-CC-PVTZ AUX)
    Role: JKFIT
    Keyword: DF_BASIS_SCF
    atoms 1-2, 9, 13-14          entry C          line   152 file /home/r08543048/miniconda3/share/psi4/basis/jun-cc-pvtz-jkfit.gbs 
    atoms 3-4, 6-8, 10-12, 15-20 entry H          line    70 file /home/r08543048/miniconda3/share/psi4/basis/jun-cc-pvtz-jkfit.gbs 
    atoms 5                      entry O          line   272 file /home/r08543048/miniconda3/share/psi4/basis/jun-cc-pvtz-jkfit.gbs 

  ==> Pre-Iterations <==

   -------------------------------------------------------
    Irrep   Nso     Nmo     Nalpha   Nbeta   Ndocc  Nsocc
   -------------------------------------------------------
     A        430     430       0       0       0       0
   -------------------------------------------------------
    Total     430     430       9       9       9       0
   -------------------------------------------------------

  ==> Integral Setup <==

  ==> DiskDFJK: Density-Fitted J/K Matrices <==

    J tasked:                  Yes
    K tasked:                  Yes
    wK tasked:                  No
    OpenMP threads:              1
    Integrals threads:           1
    Memory [MiB]:            15735
    Algorithm:                Core
    Integral Cache:           LOAD
    Schwarz Cutoff:          1E-12
    Fitting Condition:       1E-10

   => Auxiliary Basis Set <=

  Basis Set: (JUN-CC-PVTZ AUX)
    Blend: JUN-CC-PVTZ-JKFIT
    Number of shells: 314
    Number of basis function: 990
    Number of Cartesian functions: 1186
    Spherical Harmonics?: true
    Max angular momentum: 4

  Minimum eigenvalue in the overlap matrix is 8.0723201871E-05.
  Using Symmetric Orthogonalization.

  SCF Guess: Superposition of Atomic Densities via on-the-fly atomic UHF.

  ==> Iterations <==

                           Total Energy        Delta E     RMS |[F,P]|

   @DF-RHF iter SAD:   -78.65907300010812   -7.86591e+01   0.00000e+00 
   @DF-RHF iter   1:   -79.14812638178334   -4.89053e-01   1.00958e-03 DIIS
   @DF-RHF iter   2:   -79.23889969909919   -9.07733e-02   4.61013e-04 DIIS
   @DF-RHF iter   3:   -79.25882121087986   -1.99215e-02   7.54085e-05 DIIS
   @DF-RHF iter   4:   -79.26008678132314   -1.26557e-03   1.04580e-05 DIIS
   @DF-RHF iter   5:   -79.26011461441934   -2.78331e-05   1.87242e-06 DIIS
   @DF-RHF iter   6:   -79.26011545664153   -8.42222e-07   2.28024e-07 DIIS
   @DF-RHF iter   7:   -79.26011546963736   -1.29958e-08   3.54892e-08 DIIS
   @DF-RHF iter   8:   -79.26011546981573   -1.78375e-10   1.14812e-08 DIIS
   @DF-RHF iter   9:   -79.26011546983366   -1.79341e-11   1.89293e-09 DIIS
  Energy and wave function converged.


  ==> Post-Iterations <==

    Orbital Energies [Eh]
    ---------------------

    Doubly Occupied:                                                      

       1A    -11.210640     2A    -11.210019     3A     -1.018381  
       4A     -0.841396     5A     -0.597433     6A     -0.596724  
       7A     -0.509512     8A     -0.486893     9A     -0.486248  

    Virtual:                                                              

      10A      0.033345    11A      0.048100    12A      0.051038  
      13A      0.059550    14A      0.070843    15A      0.081482  
      16A      0.084457    17A      0.089281    18A      0.092936  
      19A      0.104829    20A      0.113180    21A      0.118151  
      22A      0.120493    23A      0.121908    24A      0.136916  
      25A      0.143076    26A      0.149437    27A      0.159953  
      28A      0.164131    29A      0.192379    30A      0.196891  
      31A      0.205696    32A      0.211021    33A      0.228632  
      34A      0.235889    35A      0.261470    36A      0.275976  
      37A      0.278770    38A      0.282793    39A      0.287251  
      40A      0.298641    41A      0.308669    42A      0.314157  
      43A      0.316658    44A      0.332786    45A      0.334794  
      46A      0.336818    47A      0.341163    48A      0.352899  
      49A      0.356440    50A      0.361261    51A      0.366702  
      52A      0.372324    53A      0.381778    54A      0.383632  
      55A      0.396437    56A      0.400220    57A      0.411695  
      58A      0.423446    59A      0.438815    60A      0.440470  
      61A      0.454694    62A      0.462115    63A      0.477224  
      64A      0.483989    65A      0.492508    66A      0.501507  
      67A      0.507762    68A      0.514409    69A      0.524890  
      70A      0.527078    71A      0.545202    72A      0.556931  
      73A      0.572933    74A      0.580318    75A      0.594647  
      76A      0.607896    77A      0.615285    78A      0.623529  
      79A      0.628545    80A      0.650542    81A      0.655287  
      82A      0.673160    83A      0.690173    84A      0.692981  
      85A      0.699165    86A      0.734922    87A      0.737597  
      88A      0.752817    89A      0.763502    90A      0.766713  
      91A      0.782369    92A      0.790427    93A      0.801818  
      94A      0.824157    95A      0.832479    96A      0.842172  
      97A      0.851407    98A      0.862432    99A      0.879848  
     100A      0.888707   101A      0.918836   102A      0.933907  
     103A      0.960982   104A      0.971037   105A      0.972983  
     106A      0.988188   107A      1.007333   108A      1.016764  
     109A      1.036149   110A      1.043049   111A      1.052682  
     112A      1.089386   113A      1.095906   114A      1.114593  
     115A      1.131048   116A      1.143111   117A      1.156076  
     118A      1.171613   119A      1.189023   120A      1.191921  
     121A      1.198859   122A      1.206372   123A      1.228314  
     124A      1.237731   125A      1.244657   126A      1.272668  
     127A      1.283655   128A      1.297324   129A      1.312660  
     130A      1.331572   131A      1.334712   132A      1.335743  
     133A      1.347558   134A      1.353440   135A      1.371077  
     136A      1.374789   137A      1.384131   138A      1.395513  
     139A      1.402798   140A      1.406932   141A      1.417945  
     142A      1.450910   143A      1.458246   144A      1.466943  
     145A      1.480872   146A      1.491826   147A      1.501329  
     148A      1.504626   149A      1.520635   150A      1.554334  
     151A      1.563299   152A      1.572031   153A      1.583607  
     154A      1.592514   155A      1.610825   156A      1.626897  
     157A      1.631012   158A      1.636406   159A      1.657657  
     160A      1.670049   161A      1.676295   162A      1.682802  
     163A      1.691825   164A      1.733149   165A      1.745177  
     166A      1.758922   167A      1.776721   168A      1.783096  
     169A      1.799796   170A      1.809944   171A      1.840402  
     172A      1.859979   173A      1.874292   174A      1.886704  
     175A      1.909466   176A      1.918666   177A      1.944486  
     178A      1.963288   179A      2.004124   180A      2.015571  
     181A      2.030962   182A      2.088743   183A      2.123117  
     184A      2.134908   185A      2.198448   186A      2.211778  
     187A      2.257150   188A      2.344445   189A      2.397498  
     190A      2.407543   191A      2.447856   192A      2.479085  
     193A      2.526582   194A      2.569496   195A      2.610281  
     196A      2.650174   197A      2.654637   198A      2.722690  
     199A      2.757600   200A      2.772842   201A      2.801166  
     202A      2.814639   203A      2.847592   204A      2.858437  
     205A      2.873267   206A      2.950884   207A      2.977323  
     208A      3.017740   209A      3.046040   210A      3.084797  
     211A      3.102769   212A      3.115891   213A      3.133013  
     214A      3.182027   215A      3.200088   216A      3.207641  
     217A      3.257779   218A      3.277820   219A      3.286587  
     220A      3.318896   221A      3.339905   222A      3.352333  
     223A      3.422395   224A      3.433746   225A      3.445063  
     226A      3.456848   227A      3.492085   228A      3.507671  
     229A      3.515670   230A      3.533413   231A      3.539971  
     232A      3.565045   233A      3.572407   234A      3.576354  
     235A      3.604499   236A      3.611853   237A      3.622107  
     238A      3.637337   239A      3.653826   240A      3.667423  
     241A      3.686975   242A      3.719989   243A      3.729975  
     244A      3.751849   245A      3.762402   246A      3.788314  
     247A      3.811363   248A      3.820685   249A      3.833909  
     250A      3.838410   251A      3.847896   252A      3.862974  
     253A      3.878046   254A      3.885066   255A      3.895459  
     256A      3.907017   257A      3.917179   258A      3.923594  
     259A      3.947361   260A      3.961912   261A      3.965545  
     262A      3.989426   263A      4.032205   264A      4.078395  
     265A      4.113243   266A      4.125129   267A      4.164935  
     268A      4.176117   269A      4.185160   270A      4.204224  
     271A      4.208911   272A      4.213753   273A      4.225880  
     274A      4.236541   275A      4.249395   276A      4.262004  
     277A      4.274008   278A      4.283024   279A      4.287151  
     280A      4.341561   281A      4.376201   282A      4.398509  
     283A      4.411837   284A      4.421430   285A      4.429707  
     286A      4.438290   287A      4.467787   288A      4.475114  
     289A      4.485944   290A      4.490105   291A      4.491927  
     292A      4.501423   293A      4.510064   294A      4.520937  
     295A      4.530284   296A      4.537947   297A      4.572971  
     298A      4.595121   299A      4.602844   300A      4.624017  
     301A      4.635229   302A      4.648821   303A      4.676091  
     304A      4.680198   305A      4.709460   306A      4.716849  
     307A      4.722956   308A      4.734417   309A      4.739930  
     310A      4.756315   311A      4.766377   312A      4.776947  
     313A      4.783884   314A      4.802331   315A      4.811499  
     316A      4.815157   317A      4.830683   318A      4.836829  
     319A      4.844906   320A      4.875866   321A      4.897381  
     322A      4.901603   323A      4.911270   324A      4.932333  
     325A      4.935860   326A      4.949838   327A      4.955923  
     328A      4.973641   329A      4.987417   330A      4.998274  
     331A      5.033101   332A      5.053215   333A      5.067413  
     334A      5.095413   335A      5.112366   336A      5.120687  
     337A      5.146129   338A      5.157376   339A      5.177447  
     340A      5.201173   341A      5.218450   342A      5.226290  
     343A      5.270034   344A      5.278360   345A      5.284248  
     346A      5.289257   347A      5.301911   348A      5.320437  
     349A      5.327768   350A      5.349759   351A      5.372858  
     352A      5.378834   353A      5.416383   354A      5.504266  
     355A      5.561327   356A      5.586472   357A      5.610798  
     358A      5.686124   359A      5.705443   360A      5.705909  
     361A      5.726411   362A      5.759686   363A      5.763707  
     364A      5.773562   365A      5.779349   366A      5.800692  
     367A      5.816568   368A      5.858490   369A      5.887743  
     370A      5.917633   371A      5.927790   372A      5.939784  
     373A      5.959539   374A      6.013554   375A      6.102576  
     376A      6.159340   377A      6.182013   378A      6.220217  
     379A      6.300029   380A      6.344222   381A      6.370830  
     382A      6.401730   383A      6.449179   384A      6.464548  
     385A      6.477321   386A      6.480496   387A      6.500412  
     388A      6.535836   389A      6.604490   390A      6.679542  
     391A      6.865579   392A      6.943610   393A      7.001779  
     394A      7.128155   395A      7.289644   396A      7.385496  
     397A      7.482787   398A      7.505890   399A      7.580122  
     400A      7.604121   401A      7.676823   402A      7.694518  
     403A      7.730484   404A      7.809100   405A      7.863364  
     406A      7.930891   407A      7.993142   408A      8.050041  
     409A      8.196988   410A      8.353068   411A      8.454919  
     412A      8.574575   413A      9.534753   414A      9.606402  
     415A      9.769547   416A      9.875476   417A      9.927004  
     418A     10.045000   419A     10.130698   420A     10.332124  
     421A     11.297008   422A     11.689506   423A     12.754144  
     424A     13.529312   425A     14.296984   426A     14.736285  
     427A     43.883810   428A     44.868361   429A     45.746586  
     430A     61.360464  

    Final Occupation by Irrep:
              A 
    DOCC [     9 ]

  @DF-RHF Final Energy:   -79.26011546983366

   => Energetics <=

    Nuclear Repulsion Energy =             42.3321432512366940
    One-Electron Energy =                -189.2700237655693627
    Two-Electron Energy =                  67.6777650444990115
    Total Energy =                        -79.2601154698336643

Computation Completed


Properties will be evaluated at   0.000000,   0.000000,   0.000000 [a0]

Properties computed using the SCF density matrix

  Nuclear Dipole Moment: [e a0]
     X:   -86.3532      Y:     3.6810      Z:     3.8324

  Electronic Dipole Moment: [e a0]
     X:    86.3514      Y:    -3.6802      Z:    -3.8324

  Dipole Moment: [e a0]
     X:    -0.0018      Y:     0.0008      Z:    -0.0000     Total:     0.0020

  Dipole Moment: [D]
     X:    -0.0047      Y:     0.0020      Z:    -0.0000     Total:     0.0051


*** tstop() called on r282 at Fri Sep 10 22:41:07 2021
Module time:
	user time   =      15.85 seconds =       0.26 minutes
	system time =       0.34 seconds =       0.01 minutes
	total time  =         17 seconds =       0.28 minutes
Total time:
	user time   =      70.71 seconds =       1.18 minutes
	system time =       1.70 seconds =       0.03 minutes
	total time  =         73 seconds =       1.22 minutes
  Constructing Basis Sets for SAPT...

   => Loading Basis Set <=

    Name: (JUN-CC-PVTZ AUX)
    Role: RIFIT
    Keyword: DF_BASIS_SAPT
    atoms 1-2, 9, 13-14          entry C          line   132 file /home/r08543048/miniconda3/share/psi4/basis/jun-cc-pvtz-ri.gbs 
    atoms 3-4, 6-8, 10-12, 15-20 entry H          line    30 file /home/r08543048/miniconda3/share/psi4/basis/jun-cc-pvtz-ri.gbs 
    atoms 5                      entry O          line   244 file /home/r08543048/miniconda3/share/psi4/basis/jun-cc-pvtz-ri.gbs 


  //>>>>>>>>>>>>>>>>>>>>>>>>>>>>>>>>>>>//
  //               SAPT0               //
  //<<<<<<<<<<<<<<<<<<<<<<<<<<<<<<<<<<<//


*** tstart() called on r282
*** at Fri Sep 10 22:41:07 2021

        SAPT0  
    Ed Hohenstein
     6 June 2009

      Orbital Information
  --------------------------
    NSO        =       430
    NMO        =       430
    NRI        =      1002
    NOCC A     =        17
    NOCC B     =         9
    FOCC A     =         0
    FOCC B     =         0
    NVIR A     =       413
    NVIR B     =       421

    Elst10,r            =    -0.002025134197 [Eh]
    Exch10              =     0.004594120839 [Eh]
    Exch10 (S^2)        =     0.004586064041 [Eh]

    Iter     Energy [mEh]          dE [mEh]         Residual      Time [s]
       1      -0.31560504       0.315605042       2.222694483             0
       2      -0.38260931       0.067004267       0.463351555             1
       3      -0.38244532      -0.000163993       0.195327914             2
       4      -0.38130153      -0.001143785       0.054996665             2
       5      -0.38139162       0.000090094       0.020804112             3
       6      -0.38148093       0.000089305       0.005589124             4
       7      -0.38147195      -0.000008978       0.001700278             4
       8      -0.38146746      -0.000004496       0.000358822             5
       9      -0.38146853       0.000001073       0.000102255             5
      10      -0.38146864       0.000000109       0.000030223             6
      11      -0.38146856      -0.000000076       0.000007862             7
      12      -0.38146856      -0.000000001       0.000001881             7
      13      -0.38146856       0.000000004       0.000000489             8

    CHF Iterations converged


    Iter     Energy [mEh]          dE [mEh]         Residual      Time [s]
       1      -0.60452161       0.604521614       3.827888836             1
       2      -0.75758118       0.153059568       0.849941163             1
       3      -0.75583423      -0.001746949       0.266083161             2
       4      -0.75377052      -0.002063711       0.057760487             2
       5      -0.75387005       0.000099526       0.012992261             3
       6      -0.75395860       0.000088557       0.002452389             3
       7      -0.75394968      -0.000008922       0.000524388             4
       8      -0.75394870      -0.000000980       0.000158161             4
       9      -0.75394892       0.000000217       0.000033897             5
      10      -0.75394903       0.000000106       0.000004917             5
      11      -0.75394900      -0.000000030       0.000000728             6

    CHF Iterations converged

    Ind20,r (A<-B)      =    -0.000381468565 [Eh]
    Ind20,r (B<-A)      =    -0.000753948997 [Eh]
    Ind20,r             =    -0.001135417562 [Eh]
    Exch-Ind20,r (A<-B) =     0.000346182626 [Eh]
    Exch-Ind20,r (B<-A) =     0.000358113684 [Eh]
    Exch-Ind20,r        =     0.000704296310 [Eh]
    Disp20              =    -0.005614562816 [Eh]
    Disp20 (SS)         =    -0.002807281408 [Eh]
    Disp20 (OS)         =    -0.002807281408 [Eh]
    Exch-Disp20         =     0.000469422710 [Eh]
    Exch-Disp20 (SS)    =     0.000309402102 [Eh]
    Exch-Disp20 (OS)    =     0.000160020608 [Eh]

    SAPT Results 
  --------------------------------------------------------------------------------------------------------
    Electrostatics                 -2.02513420 [mEh]      -1.27079089 [kcal/mol]      -5.31698910 [kJ/mol]
      Elst10,r                     -2.02513420 [mEh]      -1.27079089 [kcal/mol]      -5.31698910 [kJ/mol]

    Exchange                        4.59412084 [mEh]       2.88285435 [kcal/mol]      12.06186260 [kJ/mol]
      Exch10                        4.59412084 [mEh]       2.88285435 [kcal/mol]      12.06186260 [kJ/mol]
      Exch10(S^2)                   4.58606404 [mEh]       2.87779863 [kcal/mol]      12.04070948 [kJ/mol]

    Induction                      -0.75548717 [mEh]      -0.47407536 [kcal/mol]      -1.98353129 [kJ/mol]
      Ind20,r                      -1.13541756 [mEh]      -0.71248528 [kcal/mol]      -2.98103840 [kJ/mol]
      Exch-Ind20,r                  0.70429631 [mEh]       0.44195261 [kcal/mol]       1.84912971 [kJ/mol]
      delta HF,r (2)               -0.32436592 [mEh]      -0.20354269 [kcal/mol]      -0.85162260 [kJ/mol]

    Dispersion                     -5.14514011 [mEh]      -3.22862416 [kcal/mol]     -13.50856349 [kJ/mol]
      Disp20                       -5.61456282 [mEh]      -3.52319136 [kcal/mol]     -14.74103264 [kJ/mol]
      Exch-Disp20                   0.46942271 [mEh]       0.29456720 [kcal/mol]       1.23246916 [kJ/mol]
      Disp20 (SS)                  -2.80728141 [mEh]      -1.76159568 [kcal/mol]      -7.37051632 [kJ/mol]
      Disp20 (OS)                  -2.80728141 [mEh]      -1.76159568 [kcal/mol]      -7.37051632 [kJ/mol]
      Exch-Disp20 (SS)              0.30940210 [mEh]       0.19415275 [kcal/mol]       0.81233511 [kJ/mol]
      Exch-Disp20 (OS)              0.16002061 [mEh]       0.10041445 [kcal/mol]       0.42013405 [kJ/mol]

  Total HF                          1.81349947 [mEh]       1.13798810 [kcal/mol]       4.76134221 [kJ/mol]
  Total SAPT0                      -3.33164063 [mEh]      -2.09063606 [kcal/mol]      -8.74722128 [kJ/mol]

  Special recipe for scaled SAPT0 (see Manual):
    Electrostatics sSAPT0          -2.02513420 [mEh]      -1.27079089 [kcal/mol]      -5.31698910 [kJ/mol]
    Exchange sSAPT0                 4.59412084 [mEh]       2.88285435 [kcal/mol]      12.06186260 [kJ/mol]
    Induction sSAPT0               -0.75176872 [mEh]      -0.47174199 [kcal/mol]      -1.97376850 [kJ/mol]
    Dispersion sSAPT0              -5.14266171 [mEh]      -3.22706894 [kcal/mol]     -13.50205646 [kJ/mol]
  Total sSAPT0                     -3.32544379 [mEh]      -2.08674748 [kcal/mol]      -8.73095147 [kJ/mol]
  --------------------------------------------------------------------------------------------------------

*** tstop() called on r282 at Fri Sep 10 22:42:12 2021
Module time:
	user time   =      55.14 seconds =       0.92 minutes
	system time =       9.89 seconds =       0.16 minutes
	total time  =         65 seconds =       1.08 minutes
Total time:
	user time   =     125.98 seconds =       2.10 minutes
	system time =      11.59 seconds =       0.19 minutes
	total time  =        138 seconds =       2.30 minutes

    Psi4 stopped on: Friday, 10 September 2021 10:42PM
    Psi4 wall time for execution: 0:02:17.76

*** Psi4 exiting successfully. Buy a developer a beer!
