
    -----------------------------------------------------------------------
          Psi4: An Open-Source Ab Initio Electronic Structure Package
                               Psi4 1.3.2 release

                         Git: Rev {HEAD} ecbda83 


    R. M. Parrish, L. A. Burns, D. G. A. Smith, A. C. Simmonett,
    A. E. DePrince III, E. G. Hohenstein, U. Bozkaya, A. Yu. Sokolov,
    R. Di Remigio, R. M. Richard, J. F. Gonthier, A. M. James,
    H. R. McAlexander, A. Kumar, M. Saitow, X. Wang, B. P. Pritchard,
    P. Verma, H. F. Schaefer III, K. Patkowski, R. A. King, E. F. Valeev,
    F. A. Evangelista, J. M. Turney, T. D. Crawford, and C. D. Sherrill,
    J. Chem. Theory Comput. 13(7) pp 3185--3197 (2017).
    (doi: 10.1021/acs.jctc.7b00174)


                         Additional Contributions by
    P. Kraus, H. Kruse, M. H. Lechner, M. C. Schieber, R. A. Shaw,
    A. Alenaizan, R. Galvelis, Z. L. Glick, S. Lehtola, and J. P. Misiewicz

    -----------------------------------------------------------------------


    Psi4 started on: Friday, 10 September 2021 10:58PM

    Process ID: 57298
    Host:       r282
    PSIDATADIR: /home/r08543048/miniconda3/share/psi4
    Memory:     500.0 MiB
    Threads:    1
    
  ==> Input File <==

--------------------------------------------------------------------------
# Any line starting with the # character is a comment line
#! Sample  computation

memory 22 gb

molecule Dimer {
0 1
 C  1.719092   -0.288076   -0.858196
 C  0.896537   -1.423006   -0.269374
 H  2.717985   -0.293013   -0.407319
 H  1.861577   -0.520519   -1.917773
 O  0.739857   -1.360029    1.149201
 H -0.117819   -1.390594   -0.668169
 H  1.334654   -2.383975   -0.556641
 H  1.617618   -1.415014    1.542004
 C  1.099140    1.103324   -0.727362
 H  1.597836    1.770235   -1.434309
 H  0.051805    1.053982   -1.038165
 C  1.193326    1.709505    0.669639
 H  2.235166    1.762814    0.991725
 H  0.792560    2.723307    0.679104
 H  0.644900    1.115647    1.396289
    
    
    
 --
0 1
 C  -2.431217    0.400411    0.622325
 C  -2.912568   -0.195197   -0.696093
 H  -1.550452   -0.120093    0.997099
 H  -3.206129    0.332274    1.385262
 H  -2.172669    1.453077    0.507585
 H  -3.150194   -1.252967   -0.586470
 H  -2.153091   -0.106400   -1.473293
 H  -3.808466    0.309705   -1.056177

 
 
 







units angstrom

no_reorient
symmetry c1
}

set globals{
  basis jun-cc-pvtz
}

energy('sapt0')


--------------------------------------------------------------------------

  Memory set to  20.489 GiB by Python driver.

  //>>>>>>>>>>>>>>>>>>>>>>>>>>>>>>>>>>>//
  //              Dimer HF             //
  //<<<<<<<<<<<<<<<<<<<<<<<<<<<<<<<<<<<//


*** tstart() called on r282
*** at Fri Sep 10 22:58:43 2021

   => Loading Basis Set <=

    Name: JUN-CC-PVTZ
    Role: ORBITAL
    Keyword: BASIS
    atoms 1-2, 9, 12, 16-17             entry C          line   217 file /home/r08543048/miniconda3/share/psi4/basis/jun-cc-pvtz.gbs 
    atoms 3-4, 6-8, 10-11, 13-15, 18-23 entry H          line    36 file /home/r08543048/miniconda3/share/psi4/basis/jun-cc-pvtz.gbs 
    atoms 5                             entry O          line   305 file /home/r08543048/miniconda3/share/psi4/basis/jun-cc-pvtz.gbs 


         ---------------------------------------------------------
                                   SCF
               by Justin Turney, Rob Parrish, Andy Simmonett
                          and Daniel G. A. Smith
                              RHF Reference
                        1 Threads,  20980 MiB Core
         ---------------------------------------------------------

  ==> Geometry <==

    Molecular point group: c1
    Full point group: C1

    Geometry (in Angstrom), charge = 0, multiplicity = 1:

       Center              X                  Y                   Z               Mass       
    ------------   -----------------  -----------------  -----------------  -----------------
         C            1.687637069233    -0.259188463362    -0.873760376828    12.000000000000
         C            0.865082069233    -1.394118463362    -0.284938376828    12.000000000000
         H            2.686530069233    -0.264125463362    -0.422883376828     1.007825032230
         H            1.830122069233    -0.491631463362    -1.933337376828     1.007825032230
         O            0.708402069233    -1.331141463362     1.133636623172    15.994914619570
         H           -0.149273930767    -1.361706463362    -0.683733376828     1.007825032230
         H            1.303199069233    -2.355087463362    -0.572205376828     1.007825032230
         H            1.586163069233    -1.386126463362     1.526439623172     1.007825032230
         C            1.067685069233     1.132211536638    -0.742926376828    12.000000000000
         H            1.566381069233     1.799122536638    -1.449873376828     1.007825032230
         H            0.020350069233     1.082869536638    -1.053729376828     1.007825032230
         C            1.161871069233     1.738392536638     0.654074623172    12.000000000000
         H            2.203711069233     1.791701536638     0.976160623172     1.007825032230
         H            0.761105069233     2.752194536638     0.663539623172     1.007825032230
         H            0.613445069233     1.144534536638     1.380724623172     1.007825032230
         C           -2.462671930767     0.429298536638     0.606760623172    12.000000000000
         C           -2.944022930767    -0.166309463362    -0.711657376828    12.000000000000
         H           -1.581906930767    -0.091205463362     0.981534623172     1.007825032230
         H           -3.237583930767     0.361161536638     1.369697623172     1.007825032230
         H           -2.204123930767     1.481964536638     0.492020623172     1.007825032230
         H           -3.181648930767    -1.224079463362    -0.602034376828     1.007825032230
         H           -2.184545930767    -0.077512463362    -1.488857376828     1.007825032230
         H           -3.839920930767     0.338592536638    -1.071741376828     1.007825032230

  Running in c1 symmetry.

  Rotational constants: A =      0.08011  B =      0.04192  C =      0.03616 [cm^-1]
  Rotational constants: A =   2401.50739  B =   1256.71446  C =   1083.97683 [MHz]
  Nuclear repulsion =  330.388762626541848

  Charge       = 0
  Multiplicity = 1
  Electrons    = 60
  Nalpha       = 30
  Nbeta        = 30

  ==> Algorithm <==

  SCF Algorithm Type is DF.
  DIIS enabled.
  MOM disabled.
  Fractional occupation disabled.
  Guess Type is SAD.
  Energy threshold   = 1.00e-08
  Density threshold  = 1.00e-08
  Integral threshold = 0.00e+00

  ==> Primary Basis <==

  Basis Set: JUN-CC-PVTZ
    Blend: JUN-CC-PVTZ
    Number of shells: 187
    Number of basis function: 497
    Number of Cartesian functions: 555
    Spherical Harmonics?: true
    Max angular momentum: 3

   => Loading Basis Set <=

    Name: (JUN-CC-PVTZ AUX)
    Role: JKFIT
    Keyword: DF_BASIS_SCF
    atoms 1-2, 9, 12, 16-17             entry C          line   152 file /home/r08543048/miniconda3/share/psi4/basis/jun-cc-pvtz-jkfit.gbs 
    atoms 3-4, 6-8, 10-11, 13-15, 18-23 entry H          line    70 file /home/r08543048/miniconda3/share/psi4/basis/jun-cc-pvtz-jkfit.gbs 
    atoms 5                             entry O          line   272 file /home/r08543048/miniconda3/share/psi4/basis/jun-cc-pvtz-jkfit.gbs 

  ==> Pre-Iterations <==

   -------------------------------------------------------
    Irrep   Nso     Nmo     Nalpha   Nbeta   Ndocc  Nsocc
   -------------------------------------------------------
     A        497     497       0       0       0       0
   -------------------------------------------------------
    Total     497     497      30      30      30       0
   -------------------------------------------------------

  ==> Integral Setup <==

  ==> DiskDFJK: Density-Fitted J/K Matrices <==

    J tasked:                  Yes
    K tasked:                  Yes
    wK tasked:                  No
    OpenMP threads:              1
    Integrals threads:           1
    Memory [MiB]:            15735
    Algorithm:                Core
    Integral Cache:           SAVE
    Schwarz Cutoff:          1E-12
    Fitting Condition:       1E-10

   => Auxiliary Basis Set <=

  Basis Set: (JUN-CC-PVTZ AUX)
    Blend: JUN-CC-PVTZ-JKFIT
    Number of shells: 363
    Number of basis function: 1145
    Number of Cartesian functions: 1372
    Spherical Harmonics?: true
    Max angular momentum: 4

  Minimum eigenvalue in the overlap matrix is 4.1554090699E-05.
  Using Symmetric Orthogonalization.

  SCF Guess: Superposition of Atomic Densities via on-the-fly atomic UHF.

  ==> Iterations <==

                           Total Energy        Delta E     RMS |[F,P]|

   @DF-RHF iter SAD:  -310.35582192952637   -3.10356e+02   0.00000e+00 
   @DF-RHF iter   1:  -311.15634766274172   -8.00526e-01   1.53291e-03 DIIS
   @DF-RHF iter   2:  -311.42278253151181   -2.66435e-01   7.74973e-04 DIIS
   @DF-RHF iter   3:  -311.48952496516188   -6.67424e-02   1.38388e-04 DIIS
   @DF-RHF iter   4:  -311.49358353349908   -4.05857e-03   4.85551e-05 DIIS
   @DF-RHF iter   5:  -311.49390906061376   -3.25527e-04   1.15979e-05 DIIS
   @DF-RHF iter   6:  -311.49393346461767   -2.44040e-05   2.64089e-06 DIIS
   @DF-RHF iter   7:  -311.49393507781326   -1.61320e-06   6.75756e-07 DIIS
   @DF-RHF iter   8:  -311.49393518250901   -1.04696e-07   2.01691e-07 DIIS
   @DF-RHF iter   9:  -311.49393519363304   -1.11240e-08   5.43936e-08 DIIS
   @DF-RHF iter  10:  -311.49393519462143   -9.88393e-10   1.35567e-08 DIIS
   @DF-RHF iter  11:  -311.49393519468748   -6.60521e-11   3.40194e-09 DIIS
  Energy and wave function converged.


  ==> Post-Iterations <==

    Orbital Energies [Eh]
    ---------------------

    Doubly Occupied:                                                      

       1A    -20.555872     2A    -11.272085     3A    -11.221412  
       4A    -11.216529     5A    -11.206502     6A    -11.202422  
       7A    -11.200529     8A     -1.356934     9A     -1.068829  
      10A     -1.012481    11A     -0.974109    12A     -0.866675  
      13A     -0.835776    14A     -0.792322    15A     -0.678632  
      16A     -0.641304    17A     -0.629672    18A     -0.592488  
      19A     -0.589830    20A     -0.578755    21A     -0.562216  
      22A     -0.537286    23A     -0.506687    24A     -0.502737  
      25A     -0.495288    26A     -0.481075    27A     -0.478492  
      28A     -0.473496    29A     -0.460287    30A     -0.426762  

    Virtual:                                                              

      31A      0.050964    32A      0.053225    33A      0.057774  
      34A      0.062058    35A      0.074085    36A      0.075204  
      37A      0.083311    38A      0.089270    39A      0.093136  
      40A      0.112161    41A      0.114845    42A      0.119045  
      43A      0.123727    44A      0.125186    45A      0.129869  
      46A      0.138792    47A      0.151786    48A      0.155073  
      49A      0.160011    50A      0.175851    51A      0.188631  
      52A      0.202394    53A      0.203425    54A      0.213357  
      55A      0.224792    56A      0.230472    57A      0.247757  
      58A      0.251224    59A      0.260123    60A      0.272002  
      61A      0.278571    62A      0.291051    63A      0.295286  
      64A      0.295396    65A      0.302023    66A      0.308755  
      67A      0.319985    68A      0.323426    69A      0.329316  
      70A      0.333609    71A      0.337124    72A      0.341061  
      73A      0.345395    74A      0.347444    75A      0.350681  
      76A      0.356080    77A      0.359854    78A      0.365673  
      79A      0.373947    80A      0.386822    81A      0.389411  
      82A      0.395001    83A      0.402781    84A      0.406193  
      85A      0.411428    86A      0.416138    87A      0.434576  
      88A      0.439426    89A      0.453041    90A      0.459408  
      91A      0.477824    92A      0.482921    93A      0.499398  
      94A      0.500638    95A      0.516169    96A      0.520059  
      97A      0.523192    98A      0.529377    99A      0.535046  
     100A      0.539587   101A      0.553284   102A      0.563626  
     103A      0.568149   104A      0.575052   105A      0.584655  
     106A      0.604686   107A      0.611055   108A      0.627059  
     109A      0.633565   110A      0.652129   111A      0.660595  
     112A      0.670523   113A      0.674312   114A      0.691763  
     115A      0.695361   116A      0.711596   117A      0.715581  
     118A      0.727783   119A      0.737585   120A      0.744733  
     121A      0.755706   122A      0.764925   123A      0.773765  
     124A      0.775670   125A      0.780791   126A      0.788352  
     127A      0.805089   128A      0.809624   129A      0.818150  
     130A      0.823206   131A      0.837931   132A      0.845374  
     133A      0.850285   134A      0.862455   135A      0.866669  
     136A      0.869196   137A      0.876512   138A      0.882533  
     139A      0.887329   140A      0.896641   141A      0.906841  
     142A      0.925693   143A      0.937447   144A      0.939824  
     145A      0.949688   146A      0.969579   147A      0.977902  
     148A      0.997512   149A      0.997981   150A      1.014883  
     151A      1.031705   152A      1.036240   153A      1.042105  
     154A      1.059105   155A      1.065141   156A      1.099735  
     157A      1.118645   158A      1.122872   159A      1.139933  
     160A      1.146122   161A      1.171327   162A      1.199051  
     163A      1.206952   164A      1.216945   165A      1.228550  
     166A      1.246417   167A      1.253829   168A      1.273982  
     169A      1.294929   170A      1.313694   171A      1.323236  
     172A      1.338611   173A      1.348798   174A      1.354896  
     175A      1.361102   176A      1.367435   177A      1.371474  
     178A      1.386032   179A      1.397293   180A      1.403304  
     181A      1.425608   182A      1.433572   183A      1.437781  
     184A      1.444376   185A      1.466959   186A      1.474973  
     187A      1.480313   188A      1.486126   189A      1.499729  
     190A      1.509322   191A      1.518704   192A      1.522733  
     193A      1.534773   194A      1.549684   195A      1.559889  
     196A      1.579701   197A      1.583709   198A      1.588150  
     199A      1.598272   200A      1.611420   201A      1.619963  
     202A      1.630309   203A      1.637245   204A      1.650935  
     205A      1.660636   206A      1.674170   207A      1.682179  
     208A      1.688922   209A      1.695400   210A      1.715023  
     211A      1.720153   212A      1.729207   213A      1.741280  
     214A      1.752187   215A      1.772465   216A      1.779960  
     217A      1.790081   218A      1.791601   219A      1.806062  
     220A      1.824387   221A      1.848799   222A      1.858611  
     223A      1.890707   224A      1.900920   225A      1.907088  
     226A      1.927180   227A      1.929796   228A      1.946571  
     229A      1.979562   230A      1.995533   231A      2.011843  
     232A      2.021129   233A      2.043687   234A      2.083466  
     235A      2.112578   236A      2.272545   237A      2.361207  
     238A      2.458463   239A      2.478897   240A      2.560034  
     241A      2.594551   242A      2.729940   243A      2.747917  
     244A      2.767134   245A      2.791967   246A      2.809314  
     247A      2.814587   248A      2.823527   249A      2.829029  
     250A      2.832532   251A      2.866722   252A      2.886648  
     253A      2.889051   254A      2.919176   255A      2.922915  
     256A      2.933658   257A      2.950329   258A      2.985302  
     259A      3.000914   260A      3.010535   261A      3.039867  
     262A      3.071027   263A      3.071891   264A      3.085484  
     265A      3.095674   266A      3.104437   267A      3.124811  
     268A      3.129188   269A      3.133544   270A      3.160922  
     271A      3.190551   272A      3.193214   273A      3.197950  
     274A      3.207486   275A      3.218753   276A      3.227401  
     277A      3.248720   278A      3.260194   279A      3.273527  
     280A      3.278898   281A      3.299331   282A      3.308159  
     283A      3.327158   284A      3.330497   285A      3.349750  
     286A      3.360490   287A      3.377815   288A      3.389436  
     289A      3.391978   290A      3.415270   291A      3.426928  
     292A      3.432505   293A      3.439379   294A      3.442966  
     295A      3.450656   296A      3.463214   297A      3.477948  
     298A      3.491701   299A      3.495258   300A      3.496241  
     301A      3.508630   302A      3.518401   303A      3.523916  
     304A      3.531202   305A      3.543750   306A      3.548425  
     307A      3.556155   308A      3.568590   309A      3.572356  
     310A      3.586869   311A      3.596668   312A      3.604778  
     313A      3.614077   314A      3.632314   315A      3.647181  
     316A      3.663021   317A      3.683338   318A      3.695905  
     319A      3.714194   320A      3.734672   321A      3.742433  
     322A      3.759598   323A      3.780986   324A      3.785025  
     325A      3.806196   326A      3.812280   327A      3.822287  
     328A      3.833020   329A      3.846388   330A      3.859130  
     331A      3.861939   332A      3.871001   333A      3.882112  
     334A      3.889050   335A      3.907313   336A      3.919971  
     337A      3.927713   338A      3.941540   339A      3.957574  
     340A      3.967254   341A      3.983920   342A      3.987470  
     343A      4.004792   344A      4.012138   345A      4.034783  
     346A      4.086182   347A      4.118243   348A      4.121737  
     349A      4.127479   350A      4.179972   351A      4.183671  
     352A      4.191077   353A      4.198030   354A      4.205348  
     355A      4.221290   356A      4.225833   357A      4.237824  
     358A      4.253807   359A      4.272297   360A      4.281293  
     361A      4.283153   362A      4.289037   363A      4.293726  
     364A      4.300577   365A      4.319467   366A      4.327128  
     367A      4.348558   368A      4.368157   369A      4.379558  
     370A      4.385990   371A      4.405598   372A      4.406454  
     373A      4.420034   374A      4.436729   375A      4.440436  
     376A      4.456010   377A      4.458276   378A      4.482748  
     379A      4.494522   380A      4.501255   381A      4.507655  
     382A      4.517222   383A      4.523821   384A      4.530716  
     385A      4.541426   386A      4.553435   387A      4.556579  
     388A      4.563556   389A      4.573075   390A      4.579312  
     391A      4.603646   392A      4.621745   393A      4.639071  
     394A      4.645091   395A      4.684277   396A      4.695457  
     397A      4.701204   398A      4.710718   399A      4.725547  
     400A      4.737284   401A      4.747592   402A      4.786446  
     403A      4.791586   404A      4.816961   405A      4.826160  
     406A      4.830826   407A      4.845343   408A      4.857028  
     409A      4.864986   410A      4.912862   411A      4.917509  
     412A      4.954683   413A      4.976420   414A      5.030591  
     415A      5.059063   416A      5.071584   417A      5.089684  
     418A      5.143393   419A      5.163648   420A      5.181735  
     421A      5.199366   422A      5.210593   423A      5.220810  
     424A      5.236799   425A      5.255919   426A      5.281903  
     427A      5.285970   428A      5.301597   429A      5.309304  
     430A      5.316518   431A      5.326619   432A      5.330668  
     433A      5.337030   434A      5.351604   435A      5.372182  
     436A      5.381532   437A      5.407896   438A      5.429169  
     439A      5.447238   440A      5.474885   441A      5.512889  
     442A      5.548231   443A      5.594813   444A      5.598869  
     445A      5.647549   446A      5.651391   447A      5.696197  
     448A      5.710421   449A      5.761225   450A      5.767385  
     451A      5.771487   452A      5.780577   453A      5.785685  
     454A      5.794368   455A      5.804962   456A      5.816029  
     457A      5.826099   458A      5.850072   459A      5.858956  
     460A      5.870427   461A      5.906615   462A      5.930070  
     463A      5.939887   464A      5.949566   465A      5.962510  
     466A      5.971928   467A      6.027660   468A      6.058480  
     469A      6.108042   470A      6.206726   471A      6.310656  
     472A      6.443387   473A      6.464959   474A      6.496913  
     475A      6.511091   476A      6.522777   477A      6.540459  
     478A      6.557022   479A      6.591197   480A      6.606430  
     481A      6.656350   482A      6.947814   483A      7.083909  
     484A      7.245492   485A      7.311507   486A      7.418627  
     487A      7.525191   488A      7.660590   489A      7.865864  
     490A      8.173960   491A     13.620439   492A     13.838245  
     493A     13.995900   494A     14.211712   495A     14.340041  
     496A     14.704472   497A     14.764032  

    Final Occupation by Irrep:
              A 
    DOCC [    30 ]

  @DF-RHF Final Energy:  -311.49393519468748

   => Energetics <=

    Nuclear Repulsion Energy =            330.3887626265418476
    One-Electron Energy =               -1076.9304231451314990
    Two-Electron Energy =                 435.0477253239021707
    Total Energy =                       -311.4939351946874808

Computation Completed


Properties will be evaluated at   0.000000,   0.000000,   0.000000 [a0]

Properties computed using the SCF density matrix

  Nuclear Dipole Moment: [e a0]
     X:    -3.5665      Y:     3.2754      Z:    -1.7648

  Electronic Dipole Moment: [e a0]
     X:     4.1662      Y:    -3.3272      Z:     1.4272

  Dipole Moment: [e a0]
     X:     0.5997      Y:    -0.0519      Z:    -0.3375     Total:     0.6901

  Dipole Moment: [D]
     X:     1.5244      Y:    -0.1318      Z:    -0.8579     Total:     1.7541


*** tstop() called on r282 at Fri Sep 10 22:59:41 2021
Module time:
	user time   =      55.65 seconds =       0.93 minutes
	system time =       1.38 seconds =       0.02 minutes
	total time  =         58 seconds =       0.97 minutes
Total time:
	user time   =      55.65 seconds =       0.93 minutes
	system time =       1.38 seconds =       0.02 minutes
	total time  =         58 seconds =       0.97 minutes

  //>>>>>>>>>>>>>>>>>>>>>>>>>>>>>>>>>>>//
  //            Monomer A HF           //
  //<<<<<<<<<<<<<<<<<<<<<<<<<<<<<<<<<<<//


*** tstart() called on r282
*** at Fri Sep 10 22:59:41 2021

   => Loading Basis Set <=

    Name: JUN-CC-PVTZ
    Role: ORBITAL
    Keyword: BASIS
    atoms 1-2, 9, 12, 16-17             entry C          line   217 file /home/r08543048/miniconda3/share/psi4/basis/jun-cc-pvtz.gbs 
    atoms 3-4, 6-8, 10-11, 13-15, 18-23 entry H          line    36 file /home/r08543048/miniconda3/share/psi4/basis/jun-cc-pvtz.gbs 
    atoms 5                             entry O          line   305 file /home/r08543048/miniconda3/share/psi4/basis/jun-cc-pvtz.gbs 


         ---------------------------------------------------------
                                   SCF
               by Justin Turney, Rob Parrish, Andy Simmonett
                          and Daniel G. A. Smith
                              RHF Reference
                        1 Threads,  20980 MiB Core
         ---------------------------------------------------------

  ==> Geometry <==

    Molecular point group: c1
    Full point group: C1

    Geometry (in Angstrom), charge = 0, multiplicity = 1:

       Center              X                  Y                   Z               Mass       
    ------------   -----------------  -----------------  -----------------  -----------------
         C            1.687637069233    -0.259188463362    -0.873760376828    12.000000000000
         C            0.865082069233    -1.394118463362    -0.284938376828    12.000000000000
         H            2.686530069233    -0.264125463362    -0.422883376828     1.007825032230
         H            1.830122069233    -0.491631463362    -1.933337376828     1.007825032230
         O            0.708402069233    -1.331141463362     1.133636623172    15.994914619570
         H           -0.149273930767    -1.361706463362    -0.683733376828     1.007825032230
         H            1.303199069233    -2.355087463362    -0.572205376828     1.007825032230
         H            1.586163069233    -1.386126463362     1.526439623172     1.007825032230
         C            1.067685069233     1.132211536638    -0.742926376828    12.000000000000
         H            1.566381069233     1.799122536638    -1.449873376828     1.007825032230
         H            0.020350069233     1.082869536638    -1.053729376828     1.007825032230
         C            1.161871069233     1.738392536638     0.654074623172    12.000000000000
         H            2.203711069233     1.791701536638     0.976160623172     1.007825032230
         H            0.761105069233     2.752194536638     0.663539623172     1.007825032230
         H            0.613445069233     1.144534536638     1.380724623172     1.007825032230
      Gh(C)          -2.462671930767     0.429298536638     0.606760623172    12.000000000000
      Gh(C)          -2.944022930767    -0.166309463362    -0.711657376828    12.000000000000
      Gh(H)          -1.581906930767    -0.091205463362     0.981534623172     1.007825032230
      Gh(H)          -3.237583930767     0.361161536638     1.369697623172     1.007825032230
      Gh(H)          -2.204123930767     1.481964536638     0.492020623172     1.007825032230
      Gh(H)          -3.181648930767    -1.224079463362    -0.602034376828     1.007825032230
      Gh(H)          -2.184545930767    -0.077512463362    -1.488857376828     1.007825032230
      Gh(H)          -3.839920930767     0.338592536638    -1.071741376828     1.007825032230

  Running in c1 symmetry.

  Rotational constants: A =      0.08011  B =      0.04192  C =      0.03616 [cm^-1]
  Rotational constants: A =   2401.50739  B =   1256.71446  C =   1083.97683 [MHz]
  Nuclear repulsion =  192.075120566906975

  Charge       = 0
  Multiplicity = 1
  Electrons    = 42
  Nalpha       = 21
  Nbeta        = 21

  ==> Algorithm <==

  SCF Algorithm Type is DF.
  DIIS enabled.
  MOM disabled.
  Fractional occupation disabled.
  Guess Type is SAD.
  Energy threshold   = 1.00e-08
  Density threshold  = 1.00e-08
  Integral threshold = 0.00e+00

  ==> Primary Basis <==

  Basis Set: JUN-CC-PVTZ
    Blend: JUN-CC-PVTZ
    Number of shells: 187
    Number of basis function: 497
    Number of Cartesian functions: 555
    Spherical Harmonics?: true
    Max angular momentum: 3

   => Loading Basis Set <=

    Name: (JUN-CC-PVTZ AUX)
    Role: JKFIT
    Keyword: DF_BASIS_SCF
    atoms 1-2, 9, 12, 16-17             entry C          line   152 file /home/r08543048/miniconda3/share/psi4/basis/jun-cc-pvtz-jkfit.gbs 
    atoms 3-4, 6-8, 10-11, 13-15, 18-23 entry H          line    70 file /home/r08543048/miniconda3/share/psi4/basis/jun-cc-pvtz-jkfit.gbs 
    atoms 5                             entry O          line   272 file /home/r08543048/miniconda3/share/psi4/basis/jun-cc-pvtz-jkfit.gbs 

  ==> Pre-Iterations <==

   -------------------------------------------------------
    Irrep   Nso     Nmo     Nalpha   Nbeta   Ndocc  Nsocc
   -------------------------------------------------------
     A        497     497       0       0       0       0
   -------------------------------------------------------
    Total     497     497      21      21      21       0
   -------------------------------------------------------

  ==> Integral Setup <==

  ==> DiskDFJK: Density-Fitted J/K Matrices <==

    J tasked:                  Yes
    K tasked:                  Yes
    wK tasked:                  No
    OpenMP threads:              1
    Integrals threads:           1
    Memory [MiB]:            15735
    Algorithm:                Core
    Integral Cache:           LOAD
    Schwarz Cutoff:          1E-12
    Fitting Condition:       1E-10

   => Auxiliary Basis Set <=

  Basis Set: (JUN-CC-PVTZ AUX)
    Blend: JUN-CC-PVTZ-JKFIT
    Number of shells: 363
    Number of basis function: 1145
    Number of Cartesian functions: 1372
    Spherical Harmonics?: true
    Max angular momentum: 4

  Minimum eigenvalue in the overlap matrix is 4.1554090699E-05.
  Using Symmetric Orthogonalization.

  SCF Guess: Superposition of Atomic Densities via on-the-fly atomic UHF.

  ==> Iterations <==

                           Total Energy        Delta E     RMS |[F,P]|

   @DF-RHF iter SAD:  -231.56093341489066   -2.31561e+02   0.00000e+00 
   @DF-RHF iter   1:  -232.00868721826978   -4.47754e-01   1.27237e-03 DIIS
   @DF-RHF iter   2:  -232.18554217073915   -1.76855e-01   6.72797e-04 DIIS
   @DF-RHF iter   3:  -232.23331704791582   -4.77749e-02   1.15646e-04 DIIS
   @DF-RHF iter   4:  -232.23604350223366   -2.72645e-03   3.91318e-05 DIIS
   @DF-RHF iter   5:  -232.23626069185644   -2.17190e-04   9.93010e-06 DIIS
   @DF-RHF iter   6:  -232.23627807005772   -1.73782e-05   2.25732e-06 DIIS
   @DF-RHF iter   7:  -232.23627935710218   -1.28704e-06   5.47543e-07 DIIS
   @DF-RHF iter   8:  -232.23627943637570   -7.92735e-08   1.73927e-07 DIIS
   @DF-RHF iter   9:  -232.23627944471329   -8.33759e-09   4.81667e-08 DIIS
   @DF-RHF iter  10:  -232.23627944546300   -7.49708e-10   1.12543e-08 DIIS
   @DF-RHF iter  11:  -232.23627944549904   -3.60387e-11   2.85050e-09 DIIS
  Energy and wave function converged.


  ==> Post-Iterations <==

    Orbital Energies [Eh]
    ---------------------

    Doubly Occupied:                                                      

       1A    -20.554305     2A    -11.271860     3A    -11.221200  
       4A    -11.216980     5A    -11.202500     6A     -1.355071  
       7A     -1.068557     8A     -0.973734     9A     -0.866142  
      10A     -0.791790    11A     -0.676495    12A     -0.639397  
      13A     -0.628096    14A     -0.579560    15A     -0.561735  
      16A     -0.536498    17A     -0.503446    18A     -0.495080  
      19A     -0.474062    20A     -0.460697    21A     -0.425869  

    Virtual:                                                              

      22A      0.040310    23A      0.051791    24A      0.052488  
      25A      0.058400    26A      0.070238    27A      0.072828  
      28A      0.081866    29A      0.084283    30A      0.091467  
      31A      0.106457    32A      0.112061    33A      0.118158  
      34A      0.119847    35A      0.121878    36A      0.128470  
      37A      0.133774    38A      0.140014    39A      0.150948  
      40A      0.156685    41A      0.163820    42A      0.168627  
      43A      0.198589    44A      0.200251    45A      0.206802  
      46A      0.214624    47A      0.224810    48A      0.236520  
      49A      0.245408    50A      0.250393    51A      0.259757  
      52A      0.265575    53A      0.279140    54A      0.280591  
      55A      0.293658    56A      0.301438    57A      0.309325  
      58A      0.317155    59A      0.319520    60A      0.325672  
      61A      0.332380    62A      0.336476    63A      0.340430  
      64A      0.344929    65A      0.352908    66A      0.356263  
      67A      0.361978    68A      0.362943    69A      0.372063  
      70A      0.381548    71A      0.391521    72A      0.396535  
      73A      0.405497    74A      0.408347    75A      0.420437  
      76A      0.421685    77A      0.431116    78A      0.438769  
      79A      0.445030    80A      0.450218    81A      0.475743  
      82A      0.483312    83A      0.488122    84A      0.492333  
      85A      0.498817    86A      0.506788    87A      0.516617  
      88A      0.526979    89A      0.538020    90A      0.540840  
      91A      0.545064    92A      0.550556    93A      0.555280  
      94A      0.566440    95A      0.571404    96A      0.580751  
      97A      0.594378    98A      0.607810    99A      0.621137  
     100A      0.625506   101A      0.629129   102A      0.637437  
     103A      0.644966   104A      0.655542   105A      0.662259  
     106A      0.669819   107A      0.672811   108A      0.682154  
     109A      0.696075   110A      0.711894   111A      0.729014  
     112A      0.747044   113A      0.755867   114A      0.764145  
     115A      0.773486   116A      0.780647   117A      0.798323  
     118A      0.802277   119A      0.810112   120A      0.823252  
     121A      0.835804   122A      0.851191   123A      0.860493  
     124A      0.871102   125A      0.879188   126A      0.892395  
     127A      0.901795   128A      0.907658   129A      0.914094  
     130A      0.939946   131A      0.962716   132A      0.985906  
     133A      0.998690   134A      1.001137   135A      1.011529  
     136A      1.026347   137A      1.031831   138A      1.061433  
     139A      1.066452   140A      1.090786   141A      1.095217  
     142A      1.113381   143A      1.122870   144A      1.130449  
     145A      1.136398   146A      1.149235   147A      1.157659  
     148A      1.163166   149A      1.180506   150A      1.189373  
     151A      1.207000   152A      1.214071   153A      1.222039  
     154A      1.233584   155A      1.235398   156A      1.238487  
     157A      1.255687   158A      1.265390   159A      1.292369  
     160A      1.301401   161A      1.310444   162A      1.325046  
     163A      1.334960   164A      1.342203   165A      1.356141  
     166A      1.361926   167A      1.372129   168A      1.388333  
     169A      1.391479   170A      1.405372   171A      1.413825  
     172A      1.433362   173A      1.444098   174A      1.457580  
     175A      1.458813   176A      1.475224   177A      1.478840  
     178A      1.488791   179A      1.495424   180A      1.502599  
     181A      1.514247   182A      1.525102   183A      1.532544  
     184A      1.549193   185A      1.558485   186A      1.569341  
     187A      1.577029   188A      1.588033   189A      1.592711  
     190A      1.599364   191A      1.605563   192A      1.619617  
     193A      1.628978   194A      1.645491   195A      1.652868  
     196A      1.665518   197A      1.674801   198A      1.695763  
     199A      1.701917   200A      1.705250   201A      1.720476  
     202A      1.733262   203A      1.745748   204A      1.755416  
     205A      1.759267   206A      1.768423   207A      1.792705  
     208A      1.799067   209A      1.812223   210A      1.818694  
     211A      1.836319   212A      1.853556   213A      1.880667  
     214A      1.907501   215A      1.929554   216A      1.937999  
     217A      1.964283   218A      1.979268   219A      1.984273  
     220A      1.995968   221A      2.000944   222A      2.032785  
     223A      2.083707   224A      2.103356   225A      2.116336  
     226A      2.124969   227A      2.233188   228A      2.279929  
     229A      2.311915   230A      2.344016   231A      2.380889  
     232A      2.421939   233A      2.431431   234A      2.468422  
     235A      2.487721   236A      2.535198   237A      2.571294  
     238A      2.603543   239A      2.613796   240A      2.791286  
     241A      2.817473   242A      2.822908   243A      2.848198  
     244A      2.887733   245A      2.893534   246A      2.916080  
     247A      2.923914   248A      2.963419   249A      2.990038  
     250A      3.005291   251A      3.041873   252A      3.066257  
     253A      3.076742   254A      3.099688   255A      3.105369  
     256A      3.130331   257A      3.166797   258A      3.183593  
     259A      3.205599   260A      3.226849   261A      3.244493  
     262A      3.266830   263A      3.272444   264A      3.309228  
     265A      3.330832   266A      3.354878   267A      3.377713  
     268A      3.399372   269A      3.415297   270A      3.425813  
     271A      3.440722   272A      3.447135   273A      3.453225  
     274A      3.470180   275A      3.480850   276A      3.486186  
     277A      3.502695   278A      3.508570   279A      3.518982  
     280A      3.520568   281A      3.530287   282A      3.546912  
     283A      3.561013   284A      3.568353   285A      3.569843  
     286A      3.577919   287A      3.584620   288A      3.593909  
     289A      3.598670   290A      3.611895   291A      3.631703  
     292A      3.639898   293A      3.655407   294A      3.669933  
     295A      3.679864   296A      3.704050   297A      3.710804  
     298A      3.733654   299A      3.754195   300A      3.776225  
     301A      3.779256   302A      3.794037   303A      3.801368  
     304A      3.803858   305A      3.809044   306A      3.822630  
     307A      3.829151   308A      3.852828   309A      3.859280  
     310A      3.868114   311A      3.869737   312A      3.908291  
     313A      3.928610   314A      3.936334   315A      3.940256  
     316A      3.958852   317A      3.960772   318A      3.981266  
     319A      3.987967   320A      4.007127   321A      4.030088  
     322A      4.048064   323A      4.072781   324A      4.087861  
     325A      4.098459   326A      4.113169   327A      4.124604  
     328A      4.135955   329A      4.153826   330A      4.171444  
     331A      4.189343   332A      4.202039   333A      4.205145  
     334A      4.215335   335A      4.251952   336A      4.262185  
     337A      4.269133   338A      4.287674   339A      4.296636  
     340A      4.316974   341A      4.330533   342A      4.357871  
     343A      4.367219   344A      4.369738   345A      4.374712  
     346A      4.384629   347A      4.393052   348A      4.406407  
     349A      4.418255   350A      4.430332   351A      4.447113  
     352A      4.452178   353A      4.457145   354A      4.471929  
     355A      4.484321   356A      4.502250   357A      4.508466  
     358A      4.519062   359A      4.520085   360A      4.528380  
     361A      4.540219   362A      4.547642   363A      4.551832  
     364A      4.563446   365A      4.570789   366A      4.578556  
     367A      4.589044   368A      4.609192   369A      4.625900  
     370A      4.627599   371A      4.632150   372A      4.647137  
     373A      4.679038   374A      4.691236   375A      4.718434  
     376A      4.723721   377A      4.738221   378A      4.739581  
     379A      4.749732   380A      4.754166   381A      4.780553  
     382A      4.781472   383A      4.789820   384A      4.805846  
     385A      4.816466   386A      4.828861   387A      4.841758  
     388A      4.845745   389A      4.873575   390A      4.893411  
     391A      4.903557   392A      4.908678   393A      4.912813  
     394A      4.925947   395A      4.947383   396A      4.960828  
     397A      4.971147   398A      4.999902   399A      5.008099  
     400A      5.030555   401A      5.036915   402A      5.038651  
     403A      5.058379   404A      5.067914   405A      5.079395  
     406A      5.096584   407A      5.116906   408A      5.144069  
     409A      5.160230   410A      5.173873   411A      5.204667  
     412A      5.225909   413A      5.242045   414A      5.284665  
     415A      5.301768   416A      5.310920   417A      5.320974  
     418A      5.331799   419A      5.369442   420A      5.392143  
     421A      5.400730   422A      5.419172   423A      5.429930  
     424A      5.435075   425A      5.457480   426A      5.478370  
     427A      5.514160   428A      5.551430   429A      5.598083  
     430A      5.602246   431A      5.640956   432A      5.647797  
     433A      5.655173   434A      5.669212   435A      5.727736  
     436A      5.756608   437A      5.780754   438A      5.785328  
     439A      5.798102   440A      5.823530   441A      5.851944  
     442A      5.859494   443A      5.871005   444A      5.916926  
     445A      5.935341   446A      5.959570   447A      6.006664  
     448A      6.013862   449A      6.031489   450A      6.061335  
     451A      6.107773   452A      6.206909   453A      6.227096  
     454A      6.310515   455A      6.339483   456A      6.342479  
     457A      6.365472   458A      6.392117   459A      6.438539  
     460A      6.451237   461A      6.460921   462A      6.464937  
     463A      6.526124   464A      6.552359   465A      6.583974  
     466A      6.606469   467A      6.647756   468A      6.809742  
     469A      6.909414   470A      6.949194   471A      7.086636  
     472A      7.247048   473A      7.313696   474A      7.359236  
     475A      7.421145   476A      7.498283   477A      7.524182  
     478A      7.531760   479A      7.650874   480A      7.670199  
     481A      7.699820   482A      7.800698   483A      7.812160  
     484A      7.863952   485A      7.906659   486A      7.923675  
     487A      8.176579   488A      8.301869   489A      9.747316  
     490A      9.942271   491A     13.626280   492A     13.852532  
     493A     14.005923   494A     14.228225   495A     14.710240  
     496A     45.226520   497A     45.751654  

    Final Occupation by Irrep:
              A 
    DOCC [    21 ]

  @DF-RHF Final Energy:  -232.23627944549904

   => Energetics <=

    Nuclear Repulsion Energy =            192.0751205669069748
    One-Electron Energy =                -695.6166456506462055
    Two-Electron Energy =                 271.3052456382401374
    Total Energy =                       -232.2362794454990649

Computation Completed


Properties will be evaluated at   0.000000,   0.000000,   0.000000 [a0]

Properties computed using the SCF density matrix

  Nuclear Dipole Moment: [e a0]
     X:    88.4063      Y:    -1.1973      Z:     0.0281

  Electronic Dipole Moment: [e a0]
     X:   -87.8390      Y:     1.1704      Z:    -0.4193

  Dipole Moment: [e a0]
     X:     0.5673      Y:    -0.0270      Z:    -0.3912     Total:     0.6896

  Dipole Moment: [D]
     X:     1.4420      Y:    -0.0686      Z:    -0.9943     Total:     1.7529


*** tstop() called on r282 at Fri Sep 10 23:00:20 2021
Module time:
	user time   =      39.14 seconds =       0.65 minutes
	system time =       0.77 seconds =       0.01 minutes
	total time  =         39 seconds =       0.65 minutes
Total time:
	user time   =      94.79 seconds =       1.58 minutes
	system time =       2.15 seconds =       0.04 minutes
	total time  =         97 seconds =       1.62 minutes

  //>>>>>>>>>>>>>>>>>>>>>>>>>>>>>>>>>>>//
  //            Monomer B HF           //
  //<<<<<<<<<<<<<<<<<<<<<<<<<<<<<<<<<<<//


*** tstart() called on r282
*** at Fri Sep 10 23:00:20 2021

   => Loading Basis Set <=

    Name: JUN-CC-PVTZ
    Role: ORBITAL
    Keyword: BASIS
    atoms 1-2, 9, 12, 16-17             entry C          line   217 file /home/r08543048/miniconda3/share/psi4/basis/jun-cc-pvtz.gbs 
    atoms 3-4, 6-8, 10-11, 13-15, 18-23 entry H          line    36 file /home/r08543048/miniconda3/share/psi4/basis/jun-cc-pvtz.gbs 
    atoms 5                             entry O          line   305 file /home/r08543048/miniconda3/share/psi4/basis/jun-cc-pvtz.gbs 


         ---------------------------------------------------------
                                   SCF
               by Justin Turney, Rob Parrish, Andy Simmonett
                          and Daniel G. A. Smith
                              RHF Reference
                        1 Threads,  20980 MiB Core
         ---------------------------------------------------------

  ==> Geometry <==

    Molecular point group: c1
    Full point group: C1

    Geometry (in Angstrom), charge = 0, multiplicity = 1:

       Center              X                  Y                   Z               Mass       
    ------------   -----------------  -----------------  -----------------  -----------------
      Gh(C)           1.687637069233    -0.259188463362    -0.873760376828    12.000000000000
      Gh(C)           0.865082069233    -1.394118463362    -0.284938376828    12.000000000000
      Gh(H)           2.686530069233    -0.264125463362    -0.422883376828     1.007825032230
      Gh(H)           1.830122069233    -0.491631463362    -1.933337376828     1.007825032230
      Gh(O)           0.708402069233    -1.331141463362     1.133636623172    15.994914619570
      Gh(H)          -0.149273930767    -1.361706463362    -0.683733376828     1.007825032230
      Gh(H)           1.303199069233    -2.355087463362    -0.572205376828     1.007825032230
      Gh(H)           1.586163069233    -1.386126463362     1.526439623172     1.007825032230
      Gh(C)           1.067685069233     1.132211536638    -0.742926376828    12.000000000000
      Gh(H)           1.566381069233     1.799122536638    -1.449873376828     1.007825032230
      Gh(H)           0.020350069233     1.082869536638    -1.053729376828     1.007825032230
      Gh(C)           1.161871069233     1.738392536638     0.654074623172    12.000000000000
      Gh(H)           2.203711069233     1.791701536638     0.976160623172     1.007825032230
      Gh(H)           0.761105069233     2.752194536638     0.663539623172     1.007825032230
      Gh(H)           0.613445069233     1.144534536638     1.380724623172     1.007825032230
         C           -2.462671930767     0.429298536638     0.606760623172    12.000000000000
         C           -2.944022930767    -0.166309463362    -0.711657376828    12.000000000000
         H           -1.581906930767    -0.091205463362     0.981534623172     1.007825032230
         H           -3.237583930767     0.361161536638     1.369697623172     1.007825032230
         H           -2.204123930767     1.481964536638     0.492020623172     1.007825032230
         H           -3.181648930767    -1.224079463362    -0.602034376828     1.007825032230
         H           -2.184545930767    -0.077512463362    -1.488857376828     1.007825032230
         H           -3.839920930767     0.338592536638    -1.071741376828     1.007825032230

  Running in c1 symmetry.

  Rotational constants: A =      0.08011  B =      0.04192  C =      0.03616 [cm^-1]
  Rotational constants: A =   2401.50739  B =   1256.71446  C =   1083.97683 [MHz]
  Nuclear repulsion =   42.324156056938953

  Charge       = 0
  Multiplicity = 1
  Electrons    = 18
  Nalpha       = 9
  Nbeta        = 9

  ==> Algorithm <==

  SCF Algorithm Type is DF.
  DIIS enabled.
  MOM disabled.
  Fractional occupation disabled.
  Guess Type is SAD.
  Energy threshold   = 1.00e-08
  Density threshold  = 1.00e-08
  Integral threshold = 0.00e+00

  ==> Primary Basis <==

  Basis Set: JUN-CC-PVTZ
    Blend: JUN-CC-PVTZ
    Number of shells: 187
    Number of basis function: 497
    Number of Cartesian functions: 555
    Spherical Harmonics?: true
    Max angular momentum: 3

   => Loading Basis Set <=

    Name: (JUN-CC-PVTZ AUX)
    Role: JKFIT
    Keyword: DF_BASIS_SCF
    atoms 1-2, 9, 12, 16-17             entry C          line   152 file /home/r08543048/miniconda3/share/psi4/basis/jun-cc-pvtz-jkfit.gbs 
    atoms 3-4, 6-8, 10-11, 13-15, 18-23 entry H          line    70 file /home/r08543048/miniconda3/share/psi4/basis/jun-cc-pvtz-jkfit.gbs 
    atoms 5                             entry O          line   272 file /home/r08543048/miniconda3/share/psi4/basis/jun-cc-pvtz-jkfit.gbs 

  ==> Pre-Iterations <==

   -------------------------------------------------------
    Irrep   Nso     Nmo     Nalpha   Nbeta   Ndocc  Nsocc
   -------------------------------------------------------
     A        497     497       0       0       0       0
   -------------------------------------------------------
    Total     497     497       9       9       9       0
   -------------------------------------------------------

  ==> Integral Setup <==

  ==> DiskDFJK: Density-Fitted J/K Matrices <==

    J tasked:                  Yes
    K tasked:                  Yes
    wK tasked:                  No
    OpenMP threads:              1
    Integrals threads:           1
    Memory [MiB]:            15735
    Algorithm:                Core
    Integral Cache:           LOAD
    Schwarz Cutoff:          1E-12
    Fitting Condition:       1E-10

   => Auxiliary Basis Set <=

  Basis Set: (JUN-CC-PVTZ AUX)
    Blend: JUN-CC-PVTZ-JKFIT
    Number of shells: 363
    Number of basis function: 1145
    Number of Cartesian functions: 1372
    Spherical Harmonics?: true
    Max angular momentum: 4

  Minimum eigenvalue in the overlap matrix is 4.1554090699E-05.
  Using Symmetric Orthogonalization.

  SCF Guess: Superposition of Atomic Densities via on-the-fly atomic UHF.

  ==> Iterations <==

                           Total Energy        Delta E     RMS |[F,P]|

   @DF-RHF iter SAD:   -78.65820120781648   -7.86582e+01   0.00000e+00 
   @DF-RHF iter   1:   -79.14819699242589   -4.89996e-01   8.73160e-04 DIIS
   @DF-RHF iter   2:   -79.23891604700813   -9.07191e-02   3.98815e-04 DIIS
   @DF-RHF iter   3:   -79.25883342613419   -1.99174e-02   6.52328e-05 DIIS
   @DF-RHF iter   4:   -79.26009910834790   -1.26568e-03   9.05202e-06 DIIS
   @DF-RHF iter   5:   -79.26012696225474   -2.78539e-05   1.61786e-06 DIIS
   @DF-RHF iter   6:   -79.26012780330404   -8.41049e-07   1.94711e-07 DIIS
   @DF-RHF iter   7:   -79.26012781622667   -1.29226e-08   2.24586e-08 DIIS
   @DF-RHF iter   8:   -79.26012781636487   -1.38201e-10   5.46617e-09 DIIS
  Energy and wave function converged.


  ==> Post-Iterations <==

    Orbital Energies [Eh]
    ---------------------

    Doubly Occupied:                                                      

       1A    -11.210713     2A    -11.210098     3A     -1.018226  
       4A     -0.841689     5A     -0.597016     6A     -0.596603  
       7A     -0.509958     8A     -0.486804     9A     -0.486215  

    Virtual:                                                              

      10A      0.031346    11A      0.045417    12A      0.050783  
      13A      0.056377    14A      0.069793    15A      0.072160  
      16A      0.081286    17A      0.086619    18A      0.087439  
      19A      0.103774    20A      0.110368    21A      0.114950  
      22A      0.115922    23A      0.120762    24A      0.124534  
      25A      0.128364    26A      0.138703    27A      0.143762  
      28A      0.155121    29A      0.161122    30A      0.162646  
      31A      0.169184    32A      0.181583    33A      0.183000  
      34A      0.198441    35A      0.213069    36A      0.219558  
      37A      0.228809    38A      0.249205    39A      0.265417  
      40A      0.277049    41A      0.278700    42A      0.282094  
      43A      0.290398    44A      0.295292    45A      0.301609  
      46A      0.303843    47A      0.316976    48A      0.322769  
      49A      0.327727    50A      0.339871    51A      0.346438  
      52A      0.346582    53A      0.351171    54A      0.356457  
      55A      0.359945    56A      0.366081    57A      0.375215  
      58A      0.377854    59A      0.384300    60A      0.387366  
      61A      0.391836    62A      0.397581    63A      0.398871  
      64A      0.416919    65A      0.419569    66A      0.441693  
      67A      0.446737    68A      0.456790    69A      0.465184  
      70A      0.472799    71A      0.477868    72A      0.498184  
      73A      0.507512    74A      0.515512    75A      0.518728  
      76A      0.534534    77A      0.540979    78A      0.546641  
      79A      0.552008    80A      0.559728    81A      0.563277  
      82A      0.566530    83A      0.580365    84A      0.607735  
      85A      0.612124    86A      0.620938    87A      0.624975  
      88A      0.628210    89A      0.634541    90A      0.642954  
      91A      0.660538    92A      0.665690    93A      0.670379  
      94A      0.684644    95A      0.694237    96A      0.701377  
      97A      0.702450    98A      0.717899    99A      0.746780  
     100A      0.754638   101A      0.758941   102A      0.766159  
     103A      0.775131   104A      0.789506   105A      0.794667  
     106A      0.801222   107A      0.820363   108A      0.830128  
     109A      0.834444   110A      0.843209   111A      0.859987  
     112A      0.878040   113A      0.883661   114A      0.890856  
     115A      0.899286   116A      0.936215   117A      0.943945  
     118A      0.962345   119A      0.976195   120A      0.982095  
     121A      0.996113   122A      1.013841   123A      1.023667  
     124A      1.038831   125A      1.055891   126A      1.087760  
     127A      1.090279   128A      1.098750   129A      1.107589  
     130A      1.131228   131A      1.142304   132A      1.152226  
     133A      1.175728   134A      1.184235   135A      1.196208  
     136A      1.213470   137A      1.224766   138A      1.228831  
     139A      1.235030   140A      1.240320   141A      1.259452  
     142A      1.276062   143A      1.282471   144A      1.299393  
     145A      1.304158   146A      1.312841   147A      1.329518  
     148A      1.333174   149A      1.340500   150A      1.343940  
     151A      1.350474   152A      1.371149   153A      1.377870  
     154A      1.388040   155A      1.392719   156A      1.405835  
     157A      1.407041   158A      1.413387   159A      1.419194  
     160A      1.436702   161A      1.450474   162A      1.453450  
     163A      1.463243   164A      1.473222   165A      1.478309  
     166A      1.502633   167A      1.503621   168A      1.514156  
     169A      1.525025   170A      1.532847   171A      1.555194  
     172A      1.565502   173A      1.575952   174A      1.586930  
     175A      1.598288   176A      1.610528   177A      1.614824  
     178A      1.622968   179A      1.627829   180A      1.647440  
     181A      1.662592   182A      1.666936   183A      1.674013  
     184A      1.686301   185A      1.705298   186A      1.709035  
     187A      1.719881   188A      1.726332   189A      1.743959  
     190A      1.770877   191A      1.774240   192A      1.790293  
     193A      1.793561   194A      1.806791   195A      1.828672  
     196A      1.845202   197A      1.854871   198A      1.873870  
     199A      1.890529   200A      1.911071   201A      1.927302  
     202A      1.940807   203A      1.947393   204A      1.968229  
     205A      1.995527   206A      2.027267   207A      2.046829  
     208A      2.065375   209A      2.073866   210A      2.118905  
     211A      2.161881   212A      2.176248   213A      2.204959  
     214A      2.212537   215A      2.280043   216A      2.284683  
     217A      2.356471   218A      2.400716   219A      2.414131  
     220A      2.444194   221A      2.487089   222A      2.515619  
     223A      2.529974   224A      2.571634   225A      2.579838  
     226A      2.584975   227A      2.653032   228A      2.719118  
     229A      2.737328   230A      2.748435   231A      2.770961  
     232A      2.791956   233A      2.818540   234A      2.828828  
     235A      2.864013   236A      2.877099   237A      2.921612  
     238A      2.936668   239A      2.981699   240A      3.014413  
     241A      3.055701   242A      3.058842   243A      3.089652  
     244A      3.122304   245A      3.135116   246A      3.194254  
     247A      3.207169   248A      3.218636   249A      3.234805  
     250A      3.293802   251A      3.309562   252A      3.323775  
     253A      3.343672   254A      3.370616   255A      3.432334  
     256A      3.440834   257A      3.450485   258A      3.459602  
     259A      3.495682   260A      3.508651   261A      3.515599  
     262A      3.521650   263A      3.532409   264A      3.545781  
     265A      3.564360   266A      3.576520   267A      3.600977  
     268A      3.613329   269A      3.622729   270A      3.630518  
     271A      3.645181   272A      3.649078   273A      3.670453  
     274A      3.678795   275A      3.701270   276A      3.718853  
     277A      3.730070   278A      3.743570   279A      3.768163  
     280A      3.785057   281A      3.792918   282A      3.807622  
     283A      3.833699   284A      3.838154   285A      3.843761  
     286A      3.856263   287A      3.869382   288A      3.874819  
     289A      3.880142   290A      3.891245   291A      3.903810  
     292A      3.910103   293A      3.914926   294A      3.934020  
     295A      3.947408   296A      3.962114   297A      3.978935  
     298A      3.981406   299A      3.997339   300A      4.035355  
     301A      4.074546   302A      4.096580   303A      4.109383  
     304A      4.139096   305A      4.149710   306A      4.171113  
     307A      4.188550   308A      4.191748   309A      4.201349  
     310A      4.208592   311A      4.218283   312A      4.225280  
     313A      4.233415   314A      4.255140   315A      4.269506  
     316A      4.279799   317A      4.289204   318A      4.305458  
     319A      4.319728   320A      4.347666   321A      4.361716  
     322A      4.378747   323A      4.406677   324A      4.423323  
     325A      4.426862   326A      4.432775   327A      4.449364  
     328A      4.467230   329A      4.474870   330A      4.492129  
     331A      4.503655   332A      4.508629   333A      4.510785  
     334A      4.524332   335A      4.529824   336A      4.536044  
     337A      4.560662   338A      4.567185   339A      4.579103  
     340A      4.591602   341A      4.611265   342A      4.629437  
     343A      4.635918   344A      4.658341   345A      4.663068  
     346A      4.670119   347A      4.675520   348A      4.690232  
     349A      4.701422   350A      4.710656   351A      4.716599  
     352A      4.738724   353A      4.749846   354A      4.756746  
     355A      4.768378   356A      4.784180   357A      4.788848  
     358A      4.798460   359A      4.803232   360A      4.807291  
     361A      4.825381   362A      4.834466   363A      4.847665  
     364A      4.856034   365A      4.870028   366A      4.895011  
     367A      4.901023   368A      4.903834   369A      4.909833  
     370A      4.916443   371A      4.937281   372A      4.941788  
     373A      4.952782   374A      4.966357   375A      4.971802  
     376A      4.986141   377A      5.001390   378A      5.002310  
     379A      5.033264   380A      5.037067   381A      5.046812  
     382A      5.064184   383A      5.084264   384A      5.109078  
     385A      5.122520   386A      5.136272   387A      5.138541  
     388A      5.158980   389A      5.172326   390A      5.191590  
     391A      5.198842   392A      5.209796   393A      5.230522  
     394A      5.240423   395A      5.260573   396A      5.280502  
     397A      5.293160   398A      5.311743   399A      5.323654  
     400A      5.332166   401A      5.350723   402A      5.359500  
     403A      5.364476   404A      5.384915   405A      5.397569  
     406A      5.438201   407A      5.452089   408A      5.555118  
     409A      5.576870   410A      5.588345   411A      5.643462  
     412A      5.651334   413A      5.667372   414A      5.693796  
     415A      5.706383   416A      5.728897   417A      5.762009  
     418A      5.767973   419A      5.779590   420A      5.786107  
     421A      5.788566   422A      5.809946   423A      5.827441  
     424A      5.867627   425A      5.917533   426A      5.928879  
     427A      5.940205   428A      5.944481   429A      5.962447  
     430A      5.992819   431A      6.056911   432A      6.108018  
     433A      6.125208   434A      6.174355   435A      6.228610  
     436A      6.241079   437A      6.267698   438A      6.359083  
     439A      6.385143   440A      6.408417   441A      6.432406  
     442A      6.460404   443A      6.476099   444A      6.496371  
     445A      6.499512   446A      6.514695   447A      6.551139  
     448A      6.560215   449A      6.654209   450A      6.766631  
     451A      6.822160   452A      6.925807   453A      6.964171  
     454A      6.997306   455A      7.142243   456A      7.298393  
     457A      7.368975   458A      7.431944   459A      7.491548  
     460A      7.562350   461A      7.605358   462A      7.645098  
     463A      7.697989   464A      7.705032   465A      7.719947  
     466A      7.760316   467A      7.827326   468A      7.855391  
     469A      7.904366   470A      7.948081   471A      7.999061  
     472A      8.100314   473A      8.240165   474A      8.337715  
     475A      8.355633   476A      8.528584   477A      8.730133  
     478A      9.553613   479A      9.594498   480A      9.634104  
     481A      9.821239   482A      9.875203   483A      9.959834  
     484A     10.024734   485A     10.115589   486A     10.332395  
     487A     11.342671   488A     11.746955   489A     12.774620  
     490A     13.525582   491A     14.328453   492A     14.727097  
     493A     43.787141   494A     44.357176   495A     45.399404  
     496A     45.824811   497A     61.615894  

    Final Occupation by Irrep:
              A 
    DOCC [     9 ]

  @DF-RHF Final Energy:   -79.26012781636487

   => Energetics <=

    Nuclear Repulsion Energy =             42.3241560569389534
    One-Electron Energy =                -189.2539269226851388
    Two-Electron Energy =                  67.6696430493813068
    Total Energy =                        -79.2601278163648715

Computation Completed


Properties will be evaluated at   0.000000,   0.000000,   0.000000 [a0]

Properties computed using the SCF density matrix

  Nuclear Dipole Moment: [e a0]
     X:   -91.9728      Y:     4.4727      Z:    -1.7929

  Electronic Dipole Moment: [e a0]
     X:    91.9717      Y:    -4.4726      Z:     1.7930

  Dipole Moment: [e a0]
     X:    -0.0011      Y:     0.0001      Z:     0.0001     Total:     0.0011

  Dipole Moment: [D]
     X:    -0.0028      Y:     0.0002      Z:     0.0003     Total:     0.0028


*** tstop() called on r282 at Fri Sep 10 23:00:48 2021
Module time:
	user time   =      26.90 seconds =       0.45 minutes
	system time =       0.51 seconds =       0.01 minutes
	total time  =         28 seconds =       0.47 minutes
Total time:
	user time   =     121.69 seconds =       2.03 minutes
	system time =       2.66 seconds =       0.04 minutes
	total time  =        125 seconds =       2.08 minutes
  Constructing Basis Sets for SAPT...

   => Loading Basis Set <=

    Name: (JUN-CC-PVTZ AUX)
    Role: RIFIT
    Keyword: DF_BASIS_SAPT
    atoms 1-2, 9, 12, 16-17             entry C          line   132 file /home/r08543048/miniconda3/share/psi4/basis/jun-cc-pvtz-ri.gbs 
    atoms 3-4, 6-8, 10-11, 13-15, 18-23 entry H          line    30 file /home/r08543048/miniconda3/share/psi4/basis/jun-cc-pvtz-ri.gbs 
    atoms 5                             entry O          line   244 file /home/r08543048/miniconda3/share/psi4/basis/jun-cc-pvtz-ri.gbs 


  //>>>>>>>>>>>>>>>>>>>>>>>>>>>>>>>>>>>//
  //               SAPT0               //
  //<<<<<<<<<<<<<<<<<<<<<<<<<<<<<<<<<<<//


*** tstart() called on r282
*** at Fri Sep 10 23:00:48 2021

        SAPT0  
    Ed Hohenstein
     6 June 2009

      Orbital Information
  --------------------------
    NSO        =       497
    NMO        =       497
    NRI        =      1159
    NOCC A     =        21
    NOCC B     =         9
    FOCC A     =         0
    FOCC B     =         0
    NVIR A     =       476
    NVIR B     =       488

    Elst10,r            =    -0.002091539824 [Eh]
    Exch10              =     0.005238550119 [Eh]
    Exch10 (S^2)        =     0.005228168492 [Eh]

    Iter     Energy [mEh]          dE [mEh]         Residual      Time [s]
       1      -0.32262827       0.322628268       2.224161849             1
       2      -0.38882520       0.066196931       0.379052671             2
       3      -0.38855556      -0.000269639       0.130602726             3
       4      -0.38776074      -0.000794820       0.034946885             4
       5      -0.38778878       0.000028040       0.012220512             5
       6      -0.38783457       0.000045788       0.003308270             6
       7      -0.38783638       0.000001812       0.000829998             7
       8      -0.38783321      -0.000003171       0.000211375             8
       9      -0.38783330       0.000000092       0.000069035             9
      10      -0.38783350       0.000000199       0.000017826            10
      11      -0.38783348      -0.000000016       0.000005077            11
      12      -0.38783347      -0.000000012       0.000001223            12
      13      -0.38783347       0.000000002       0.000000321            13

    CHF Iterations converged


    Iter     Energy [mEh]          dE [mEh]         Residual      Time [s]
       1      -0.63086281       0.630862806       3.351654998             1
       2      -0.75284904       0.121986231       0.720376576             2
       3      -0.75371987       0.000870833       0.205150204             3
       4      -0.75173281      -0.001987058       0.054557559             3
       5      -0.75171930      -0.000013516       0.011929329             4
       6      -0.75183813       0.000118835       0.001961099             5
       7      -0.75182903      -0.000009099       0.000499491             6
       8      -0.75182776      -0.000001275       0.000138235             7
       9      -0.75182823       0.000000472       0.000025573             8
      10      -0.75182825       0.000000018       0.000004367             9
      11      -0.75182823      -0.000000017       0.000000851             9

    CHF Iterations converged

    Ind20,r (A<-B)      =    -0.000387833473 [Eh]
    Ind20,r (B<-A)      =    -0.000751828232 [Eh]
    Ind20,r             =    -0.001139661705 [Eh]
    Exch-Ind20,r (A<-B) =     0.000336412175 [Eh]
    Exch-Ind20,r (B<-A) =     0.000509471929 [Eh]
    Exch-Ind20,r        =     0.000845884104 [Eh]
    Disp20              =    -0.006691096606 [Eh]
    Disp20 (SS)         =    -0.003345548303 [Eh]
    Disp20 (OS)         =    -0.003345548303 [Eh]
    Exch-Disp20         =     0.000572056667 [Eh]
    Exch-Disp20 (SS)    =     0.000371840529 [Eh]
    Exch-Disp20 (OS)    =     0.000200216137 [Eh]

    SAPT Results 
  --------------------------------------------------------------------------------------------------------
    Electrostatics                 -2.09153982 [mEh]      -1.31246105 [kcal/mol]      -5.49133705 [kJ/mol]
      Elst10,r                     -2.09153982 [mEh]      -1.31246105 [kcal/mol]      -5.49133705 [kJ/mol]

    Exchange                        5.23855012 [mEh]       3.28723983 [kcal/mol]      13.75381144 [kJ/mol]
      Exch10                        5.23855012 [mEh]       3.28723983 [kcal/mol]      13.75381144 [kJ/mol]
      Exch10(S^2)                   5.22816849 [mEh]       3.28072526 [kcal/mol]      13.72655448 [kJ/mol]

    Induction                      -0.67494312 [mEh]      -0.42353320 [kcal/mol]      -1.77206291 [kJ/mol]
      Ind20,r                      -1.13966170 [mEh]      -0.71514852 [kcal/mol]      -2.99218139 [kJ/mol]
      Exch-Ind20,r                  0.84588410 [mEh]       0.53080029 [kcal/mol]       2.22086841 [kJ/mol]
      delta HF,r (2)               -0.38116552 [mEh]      -0.23918497 [kcal/mol]      -1.00074993 [kJ/mol]

    Dispersion                     -6.11903994 [mEh]      -3.83975553 [kcal/mol]     -16.06553715 [kJ/mol]
      Disp20                       -6.69109661 [mEh]      -4.19872651 [kcal/mol]     -17.56747172 [kJ/mol]
      Exch-Disp20                   0.57205667 [mEh]       0.35897098 [kcal/mol]       1.50193457 [kJ/mol]
      Disp20 (SS)                  -3.34554830 [mEh]      -2.09936326 [kcal/mol]      -8.78373586 [kJ/mol]
      Disp20 (OS)                  -3.34554830 [mEh]      -2.09936326 [kcal/mol]      -8.78373586 [kJ/mol]
      Exch-Disp20 (SS)              0.37184053 [mEh]       0.23333345 [kcal/mol]       0.97626718 [kJ/mol]
      Exch-Disp20 (OS)              0.20021614 [mEh]       0.12563752 [kcal/mol]       0.52566740 [kJ/mol]

  Total HF                          2.47206718 [mEh]       1.55124557 [kcal/mol]       6.49041148 [kJ/mol]
  Total SAPT0                      -3.64697276 [mEh]      -2.28850996 [kcal/mol]      -9.57512567 [kJ/mol]

  Special recipe for scaled SAPT0 (see Manual):
    Electrostatics sSAPT0          -2.09153982 [mEh]      -1.31246105 [kcal/mol]      -5.49133705 [kJ/mol]
    Exchange sSAPT0                 5.23855012 [mEh]       3.28723983 [kcal/mol]      13.75381144 [kJ/mol]
    Induction sSAPT0               -0.66989406 [mEh]      -0.42036487 [kcal/mol]      -1.75880662 [kJ/mol]
    Dispersion sSAPT0              -6.11562535 [mEh]      -3.83761285 [kcal/mol]     -16.05657215 [kJ/mol]
  Total sSAPT0                     -3.63850912 [mEh]      -2.28319894 [kcal/mol]      -9.55290438 [kJ/mol]
  --------------------------------------------------------------------------------------------------------

*** tstop() called on r282 at Fri Sep 10 23:02:38 2021
Module time:
	user time   =      94.28 seconds =       1.57 minutes
	system time =      15.28 seconds =       0.25 minutes
	total time  =        110 seconds =       1.83 minutes
Total time:
	user time   =     216.12 seconds =       3.60 minutes
	system time =      17.94 seconds =       0.30 minutes
	total time  =        235 seconds =       3.92 minutes

    Psi4 stopped on: Friday, 10 September 2021 11:02PM
    Psi4 wall time for execution: 0:03:54.70

*** Psi4 exiting successfully. Buy a developer a beer!
