
    -----------------------------------------------------------------------
          Psi4: An Open-Source Ab Initio Electronic Structure Package
                               Psi4 1.3.2 release

                         Git: Rev {HEAD} ecbda83 


    R. M. Parrish, L. A. Burns, D. G. A. Smith, A. C. Simmonett,
    A. E. DePrince III, E. G. Hohenstein, U. Bozkaya, A. Yu. Sokolov,
    R. Di Remigio, R. M. Richard, J. F. Gonthier, A. M. James,
    H. R. McAlexander, A. Kumar, M. Saitow, X. Wang, B. P. Pritchard,
    P. Verma, H. F. Schaefer III, K. Patkowski, R. A. King, E. F. Valeev,
    F. A. Evangelista, J. M. Turney, T. D. Crawford, and C. D. Sherrill,
    J. Chem. Theory Comput. 13(7) pp 3185--3197 (2017).
    (doi: 10.1021/acs.jctc.7b00174)


                         Additional Contributions by
    P. Kraus, H. Kruse, M. H. Lechner, M. C. Schieber, R. A. Shaw,
    A. Alenaizan, R. Galvelis, Z. L. Glick, S. Lehtola, and J. P. Misiewicz

    -----------------------------------------------------------------------


    Psi4 started on: Friday, 10 September 2021 11:04PM

    Process ID: 57305
    Host:       r282
    PSIDATADIR: /home/r08543048/miniconda3/share/psi4
    Memory:     500.0 MiB
    Threads:    1
    
  ==> Input File <==

--------------------------------------------------------------------------
# Any line starting with the # character is a comment line
#! Sample  computation

memory 22 gb

molecule Dimer {
0 1
 C 2.459954    0.134261   -0.409212
 C 1.483562   -1.023795   -0.295605
 H 3.279905   -0.023112    0.297990
 H 2.903228    0.108542   -1.408062
 O 0.892844   -1.123714    1.001586
 H 0.646121   -0.877456   -0.978546
 H 1.973212   -1.964250   -0.564381
 H 1.594215   -1.340908    1.625240
 C 1.800912    1.483895   -0.157257
 H 2.524804    2.295086   -0.224233
 H 1.016190    1.671326   -0.891339
 H 1.344187    1.512463    0.830341



    
    
    
 --
0 1
 C  -2.419512   -1.059146   -0.419773
 C  -2.177641    0.437009   -0.581312
 C  -1.965589    1.121729    0.763470
 H  -1.580767   -1.527707    0.096587
 H  -3.316873   -1.239174    0.174288
 H  -2.552161   -1.553423   -1.382461
 H  -3.022135    0.894178   -1.101881
 H  -1.302491    0.600615   -1.214806
 H  -1.774885    2.188867    0.647407
 H  -2.847695    1.005248    1.395203
 H  -1.117716    0.675697    1.284106
 







units angstrom

no_reorient
symmetry c1
}

set globals{
  basis jun-cc-pvtz
}

energy('sapt0')


--------------------------------------------------------------------------

  Memory set to  20.489 GiB by Python driver.

  //>>>>>>>>>>>>>>>>>>>>>>>>>>>>>>>>>>>//
  //              Dimer HF             //
  //<<<<<<<<<<<<<<<<<<<<<<<<<<<<<<<<<<<//


*** tstart() called on r282
*** at Fri Sep 10 23:04:57 2021

   => Loading Basis Set <=

    Name: JUN-CC-PVTZ
    Role: ORBITAL
    Keyword: BASIS
    atoms 1-2, 9, 13-15          entry C          line   217 file /home/r08543048/miniconda3/share/psi4/basis/jun-cc-pvtz.gbs 
    atoms 3-4, 6-8, 10-12, 16-23 entry H          line    36 file /home/r08543048/miniconda3/share/psi4/basis/jun-cc-pvtz.gbs 
    atoms 5                      entry O          line   305 file /home/r08543048/miniconda3/share/psi4/basis/jun-cc-pvtz.gbs 


         ---------------------------------------------------------
                                   SCF
               by Justin Turney, Rob Parrish, Andy Simmonett
                          and Daniel G. A. Smith
                              RHF Reference
                        1 Threads,  20980 MiB Core
         ---------------------------------------------------------

  ==> Geometry <==

    Molecular point group: c1
    Full point group: C1

    Geometry (in Angstrom), charge = 0, multiplicity = 1:

       Center              X                  Y                   Z               Mass       
    ------------   -----------------  -----------------  -----------------  -----------------
         C            2.438720232284     0.157323767632    -0.422642629389    12.000000000000
         C            1.462328232284    -1.000732232368    -0.309035629389    12.000000000000
         H            3.258671232284    -0.000049232368     0.284559370611     1.007825032230
         H            2.881994232284     0.131604767632    -1.421492629389     1.007825032230
         O            0.871610232284    -1.100651232368     0.988155370611    15.994914619570
         H            0.624887232284    -0.854393232368    -0.991976629389     1.007825032230
         H            1.951978232284    -1.941187232368    -0.577811629389     1.007825032230
         H            1.572981232284    -1.317845232368     1.611809370611     1.007825032230
         C            1.779678232284     1.506957767632    -0.170687629389    12.000000000000
         H            2.503570232284     2.318148767632    -0.237663629389     1.007825032230
         H            0.994956232284     1.694388767632    -0.904769629389     1.007825032230
         H            1.322953232284     1.535525767632     0.816910370611     1.007825032230
         C           -2.440745767716    -1.036083232368    -0.433203629389    12.000000000000
         C           -2.198874767716     0.460071767632    -0.594742629389    12.000000000000
         C           -1.986822767716     1.144791767632     0.750039370611    12.000000000000
         H           -1.602000767716    -1.504644232368     0.083156370611     1.007825032230
         H           -3.338106767716    -1.216111232368     0.160857370611     1.007825032230
         H           -2.573394767716    -1.530360232368    -1.395891629389     1.007825032230
         H           -3.043368767716     0.917240767632    -1.115311629389     1.007825032230
         H           -1.323724767716     0.623677767632    -1.228236629389     1.007825032230
         H           -1.796118767716     2.211929767632     0.633976370611     1.007825032230
         H           -2.868928767716     1.028310767632     1.381772370611     1.007825032230
         H           -1.138949767716     0.698759767632     1.270675370611     1.007825032230

  Running in c1 symmetry.

  Rotational constants: A =      0.09930  B =      0.03728  C =      0.03215 [cm^-1]
  Rotational constants: A =   2977.02764  B =   1117.66848  C =    963.68416 [MHz]
  Nuclear repulsion =  327.144302280552438

  Charge       = 0
  Multiplicity = 1
  Electrons    = 60
  Nalpha       = 30
  Nbeta        = 30

  ==> Algorithm <==

  SCF Algorithm Type is DF.
  DIIS enabled.
  MOM disabled.
  Fractional occupation disabled.
  Guess Type is SAD.
  Energy threshold   = 1.00e-08
  Density threshold  = 1.00e-08
  Integral threshold = 0.00e+00

  ==> Primary Basis <==

  Basis Set: JUN-CC-PVTZ
    Blend: JUN-CC-PVTZ
    Number of shells: 187
    Number of basis function: 497
    Number of Cartesian functions: 555
    Spherical Harmonics?: true
    Max angular momentum: 3

   => Loading Basis Set <=

    Name: (JUN-CC-PVTZ AUX)
    Role: JKFIT
    Keyword: DF_BASIS_SCF
    atoms 1-2, 9, 13-15          entry C          line   152 file /home/r08543048/miniconda3/share/psi4/basis/jun-cc-pvtz-jkfit.gbs 
    atoms 3-4, 6-8, 10-12, 16-23 entry H          line    70 file /home/r08543048/miniconda3/share/psi4/basis/jun-cc-pvtz-jkfit.gbs 
    atoms 5                      entry O          line   272 file /home/r08543048/miniconda3/share/psi4/basis/jun-cc-pvtz-jkfit.gbs 

  ==> Pre-Iterations <==

   -------------------------------------------------------
    Irrep   Nso     Nmo     Nalpha   Nbeta   Ndocc  Nsocc
   -------------------------------------------------------
     A        497     497       0       0       0       0
   -------------------------------------------------------
    Total     497     497      30      30      30       0
   -------------------------------------------------------

  ==> Integral Setup <==

  ==> DiskDFJK: Density-Fitted J/K Matrices <==

    J tasked:                  Yes
    K tasked:                  Yes
    wK tasked:                  No
    OpenMP threads:              1
    Integrals threads:           1
    Memory [MiB]:            15735
    Algorithm:                Core
    Integral Cache:           SAVE
    Schwarz Cutoff:          1E-12
    Fitting Condition:       1E-10

   => Auxiliary Basis Set <=

  Basis Set: (JUN-CC-PVTZ AUX)
    Blend: JUN-CC-PVTZ-JKFIT
    Number of shells: 363
    Number of basis function: 1145
    Number of Cartesian functions: 1372
    Spherical Harmonics?: true
    Max angular momentum: 4

  Minimum eigenvalue in the overlap matrix is 5.6720060765E-05.
  Using Symmetric Orthogonalization.

  SCF Guess: Superposition of Atomic Densities via on-the-fly atomic UHF.

  ==> Iterations <==

                           Total Energy        Delta E     RMS |[F,P]|

   @DF-RHF iter SAD:  -310.34608735330994   -3.10346e+02   0.00000e+00 
   @DF-RHF iter   1:  -311.15619363162051   -8.10106e-01   1.54326e-03 DIIS
   @DF-RHF iter   2:  -311.42451118441403   -2.68318e-01   7.85004e-04 DIIS
   @DF-RHF iter   3:  -311.49318467681894   -6.86735e-02   1.38140e-04 DIIS
   @DF-RHF iter   4:  -311.49722018080797   -4.03550e-03   4.92571e-05 DIIS
   @DF-RHF iter   5:  -311.49754540538117   -3.25225e-04   1.15243e-05 DIIS
   @DF-RHF iter   6:  -311.49756992982765   -2.45244e-05   2.48659e-06 DIIS
   @DF-RHF iter   7:  -311.49757145314828   -1.52332e-06   6.35872e-07 DIIS
   @DF-RHF iter   8:  -311.49757154788699   -9.47387e-08   1.84543e-07 DIIS
   @DF-RHF iter   9:  -311.49757155779287   -9.90588e-09   5.04385e-08 DIIS
   @DF-RHF iter  10:  -311.49757155863580   -8.42931e-10   1.28640e-08 DIIS
   @DF-RHF iter  11:  -311.49757155867974   -4.39400e-11   3.21010e-09 DIIS
  Energy and wave function converged.


  ==> Post-Iterations <==

    Orbital Energies [Eh]
    ---------------------

    Doubly Occupied:                                                      

       1A    -20.558114     2A    -11.273201     3A    -11.223526  
       4A    -11.209675     5A    -11.206768     6A    -11.195823  
       7A    -11.194842     8A     -1.358678     9A     -1.052915  
      10A     -1.043705    11A     -0.922125    12A     -0.912774  
      13A     -0.813219    14A     -0.789639    15A     -0.680463  
      16A     -0.641177    17A     -0.627427    18A     -0.613269  
      19A     -0.588164    20A     -0.565724    21A     -0.538086  
      22A     -0.534400    23A     -0.524551    24A     -0.515792  
      25A     -0.486173    26A     -0.475201    27A     -0.464385  
      28A     -0.463954    29A     -0.455498    30A     -0.440156  

    Virtual:                                                              

      31A      0.053193    32A      0.054828    33A      0.058751  
      34A      0.060947    35A      0.073049    36A      0.074480  
      37A      0.078758    38A      0.092947    39A      0.096747  
      40A      0.111051    41A      0.114723    42A      0.116028  
      43A      0.118841    44A      0.128420    45A      0.139328  
      46A      0.142005    47A      0.146628    48A      0.153554  
      49A      0.163260    50A      0.185810    51A      0.194224  
      52A      0.195170    53A      0.205433    54A      0.213496  
      55A      0.220486    56A      0.231446    57A      0.239972  
      58A      0.252492    59A      0.266237    60A      0.271215  
      61A      0.278391    62A      0.283475    63A      0.292261  
      64A      0.302697    65A      0.305014    66A      0.311786  
      67A      0.315953    68A      0.324384    69A      0.326512  
      70A      0.335648    71A      0.338003    72A      0.341622  
      73A      0.346984    74A      0.352179    75A      0.358130  
      76A      0.362449    77A      0.366169    78A      0.370955  
      79A      0.377783    80A      0.390452    81A      0.391192  
      82A      0.399543    83A      0.403675    84A      0.407418  
      85A      0.412394    86A      0.415545    87A      0.431788  
      88A      0.435278    89A      0.447486    90A      0.461200  
      91A      0.464604    92A      0.485101    93A      0.488264  
      94A      0.507426    95A      0.513325    96A      0.519761  
      97A      0.521982    98A      0.524881    99A      0.532477  
     100A      0.539583   101A      0.551841   102A      0.557749  
     103A      0.562811   104A      0.569585   105A      0.582881  
     106A      0.584674   107A      0.602879   108A      0.607252  
     109A      0.621505   110A      0.643705   111A      0.663750  
     112A      0.664034   113A      0.676346   114A      0.692141  
     115A      0.708015   116A      0.720197   117A      0.721669  
     118A      0.729508   119A      0.735040   120A      0.745281  
     121A      0.758265   122A      0.767801   123A      0.771566  
     124A      0.779399   125A      0.787287   126A      0.797174  
     127A      0.807520   128A      0.812309   129A      0.819579  
     130A      0.823712   131A      0.830404   132A      0.839705  
     133A      0.850465   134A      0.857222   135A      0.858161  
     136A      0.869214   137A      0.872038   138A      0.880403  
     139A      0.890381   140A      0.904264   141A      0.909230  
     142A      0.924599   143A      0.928416   144A      0.946502  
     145A      0.952466   146A      0.967545   147A      0.978672  
     148A      0.986434   149A      1.002301   150A      1.007147  
     151A      1.011693   152A      1.031614   153A      1.047875  
     154A      1.055474   155A      1.070628   156A      1.097526  
     157A      1.110866   158A      1.136436   159A      1.136859  
     160A      1.167926   161A      1.173655   162A      1.182479  
     163A      1.203390   164A      1.204744   165A      1.228367  
     166A      1.244628   167A      1.253637   168A      1.282936  
     169A      1.284186   170A      1.293400   171A      1.312899  
     172A      1.331572   173A      1.336490   174A      1.345526  
     175A      1.354801   176A      1.362270   177A      1.378540  
     178A      1.383953   179A      1.396360   180A      1.407651  
     181A      1.420434   182A      1.424715   183A      1.443926  
     184A      1.455058   185A      1.468020   186A      1.471175  
     187A      1.483893   188A      1.488049   189A      1.497866  
     190A      1.503307   191A      1.513086   192A      1.537567  
     193A      1.542376   194A      1.548181   195A      1.560618  
     196A      1.567790   197A      1.577174   198A      1.584891  
     199A      1.600486   200A      1.608739   201A      1.621426  
     202A      1.630463   203A      1.645435   204A      1.650840  
     205A      1.658855   206A      1.668985   207A      1.683682  
     208A      1.685714   209A      1.693309   210A      1.700988  
     211A      1.706660   212A      1.723888   213A      1.739590  
     214A      1.743825   215A      1.752171   216A      1.773495  
     217A      1.792304   218A      1.820280   219A      1.830446  
     220A      1.847789   221A      1.856301   222A      1.877691  
     223A      1.882962   224A      1.894671   225A      1.898544  
     226A      1.917884   227A      1.952016   228A      1.957183  
     229A      1.971461   230A      1.983829   231A      1.994637  
     232A      2.005654   233A      2.031798   234A      2.053554  
     235A      2.098968   236A      2.263133   237A      2.343330  
     238A      2.448170   239A      2.469383   240A      2.554042  
     241A      2.595859   242A      2.754529   243A      2.764581  
     244A      2.779120   245A      2.785497   246A      2.812928  
     247A      2.827910   248A      2.834552   249A      2.843192  
     250A      2.861773   251A      2.880397   252A      2.892512  
     253A      2.922383   254A      2.923766   255A      2.933985  
     256A      2.947220   257A      2.955314   258A      2.976720  
     259A      2.983606   260A      3.004204   261A      3.023473  
     262A      3.028728   263A      3.051895   264A      3.069387  
     265A      3.102820   266A      3.103727   267A      3.118558  
     268A      3.133196   269A      3.141265   270A      3.160856  
     271A      3.167786   272A      3.175624   273A      3.196985  
     274A      3.207017   275A      3.232048   276A      3.256093  
     277A      3.265412   278A      3.284651   279A      3.287422  
     280A      3.294685   281A      3.304509   282A      3.321566  
     283A      3.331253   284A      3.343767   285A      3.349198  
     286A      3.354942   287A      3.377251   288A      3.385787  
     289A      3.395594   290A      3.399451   291A      3.419747  
     292A      3.433298   293A      3.445503   294A      3.450822  
     295A      3.459240   296A      3.470020   297A      3.474461  
     298A      3.486714   299A      3.496509   300A      3.503437  
     301A      3.510226   302A      3.520837   303A      3.529459  
     304A      3.532536   305A      3.539257   306A      3.543956  
     307A      3.557217   308A      3.560624   309A      3.571620  
     310A      3.583306   311A      3.597557   312A      3.613638  
     313A      3.622083   314A      3.630928   315A      3.638291  
     316A      3.660483   317A      3.674624   318A      3.686528  
     319A      3.715902   320A      3.735129   321A      3.737340  
     322A      3.739609   323A      3.760168   324A      3.766438  
     325A      3.785667   326A      3.803870   327A      3.810475  
     328A      3.818351   329A      3.835008   330A      3.846838  
     331A      3.857444   332A      3.869040   333A      3.889816  
     334A      3.909571   335A      3.915027   336A      3.923754  
     337A      3.943832   338A      3.960841   339A      3.964652  
     340A      3.970946   341A      3.972890   342A      3.988672  
     343A      3.998833   344A      4.017318   345A      4.052715  
     346A      4.089223   347A      4.092644   348A      4.109284  
     349A      4.121971   350A      4.144047   351A      4.161807  
     352A      4.172900   353A      4.202857   354A      4.221693  
     355A      4.234166   356A      4.244281   357A      4.250821  
     358A      4.266829   359A      4.276669   360A      4.280853  
     361A      4.299301   362A      4.310701   363A      4.326987  
     364A      4.332141   365A      4.343983   366A      4.349419  
     367A      4.355121   368A      4.365716   369A      4.376167  
     370A      4.383337   371A      4.387100   372A      4.401484  
     373A      4.423151   374A      4.425609   375A      4.435322  
     376A      4.442156   377A      4.449500   378A      4.463762  
     379A      4.476795   380A      4.484245   381A      4.503376  
     382A      4.514814   383A      4.521450   384A      4.524955  
     385A      4.539704   386A      4.548991   387A      4.555955  
     388A      4.564088   389A      4.576814   390A      4.588195  
     391A      4.604661   392A      4.607241   393A      4.638586  
     394A      4.658009   395A      4.675954   396A      4.689432  
     397A      4.695003   398A      4.702838   399A      4.719270  
     400A      4.725945   401A      4.751771   402A      4.761347  
     403A      4.791866   404A      4.809277   405A      4.830182  
     406A      4.843991   407A      4.848761   408A      4.853830  
     409A      4.880280   410A      4.886683   411A      4.907990  
     412A      4.982408   413A      5.003882   414A      5.012249  
     415A      5.032085   416A      5.044729   417A      5.063151  
     418A      5.140789   419A      5.143116   420A      5.160699  
     421A      5.180576   422A      5.190787   423A      5.211314  
     424A      5.223608   425A      5.255378   426A      5.272816  
     427A      5.282057   428A      5.289751   429A      5.292195  
     430A      5.304700   431A      5.309568   432A      5.333991  
     433A      5.353358   434A      5.387891   435A      5.406126  
     436A      5.413045   437A      5.444637   438A      5.473835  
     439A      5.479642   440A      5.491347   441A      5.520149  
     442A      5.535224   443A      5.581303   444A      5.598809  
     445A      5.612870   446A      5.623539   447A      5.675846  
     448A      5.739888   449A      5.749087   450A      5.759411  
     451A      5.765603   452A      5.785737   453A      5.791446  
     454A      5.798225   455A      5.816102   456A      5.825503  
     457A      5.833982   458A      5.839401   459A      5.847599  
     460A      5.874441   461A      5.925924   462A      5.933420  
     463A      5.946336   464A      5.953707   465A      5.971880  
     466A      6.004140   467A      6.010787   468A      6.091219  
     469A      6.114122   470A      6.137845   471A      6.298119  
     472A      6.428107   473A      6.480250   474A      6.502373  
     475A      6.518592   476A      6.545541   477A      6.549786  
     478A      6.559981   479A      6.567305   480A      6.587213  
     481A      6.617632   482A      6.923362   483A      7.069331  
     484A      7.248061   485A      7.320735   486A      7.428331  
     487A      7.521893   488A      7.649653   489A      7.859086  
     490A      8.183641   491A     13.669941   492A     13.808544  
     493A     13.939413   494A     14.075503   495A     14.484774  
     496A     14.621036   497A     14.730096  

    Final Occupation by Irrep:
              A 
    DOCC [    30 ]

  @DF-RHF Final Energy:  -311.49757155867974

   => Energetics <=

    Nuclear Repulsion Energy =            327.1443022805524379
    One-Electron Energy =               -1070.5448929180361120
    Two-Electron Energy =                 431.9030190788039363
    Total Energy =                       -311.4975715586797378

Computation Completed


Properties will be evaluated at   0.000000,   0.000000,   0.000000 [a0]

Properties computed using the SCF density matrix

  Nuclear Dipole Moment: [e a0]
     X:    -2.4075      Y:     2.6149      Z:    -1.5228

  Electronic Dipole Moment: [e a0]
     X:     3.1936      Y:    -2.6965      Z:     1.3939

  Dipole Moment: [e a0]
     X:     0.7861      Y:    -0.0816      Z:    -0.1289     Total:     0.8007

  Dipole Moment: [D]
     X:     1.9980      Y:    -0.2073      Z:    -0.3276     Total:     2.0352


*** tstop() called on r282 at Fri Sep 10 23:05:55 2021
Module time:
	user time   =      57.28 seconds =       0.95 minutes
	system time =       1.41 seconds =       0.02 minutes
	total time  =         58 seconds =       0.97 minutes
Total time:
	user time   =      57.28 seconds =       0.95 minutes
	system time =       1.41 seconds =       0.02 minutes
	total time  =         58 seconds =       0.97 minutes

  //>>>>>>>>>>>>>>>>>>>>>>>>>>>>>>>>>>>//
  //            Monomer A HF           //
  //<<<<<<<<<<<<<<<<<<<<<<<<<<<<<<<<<<<//


*** tstart() called on r282
*** at Fri Sep 10 23:05:55 2021

   => Loading Basis Set <=

    Name: JUN-CC-PVTZ
    Role: ORBITAL
    Keyword: BASIS
    atoms 1-2, 9, 13-15          entry C          line   217 file /home/r08543048/miniconda3/share/psi4/basis/jun-cc-pvtz.gbs 
    atoms 3-4, 6-8, 10-12, 16-23 entry H          line    36 file /home/r08543048/miniconda3/share/psi4/basis/jun-cc-pvtz.gbs 
    atoms 5                      entry O          line   305 file /home/r08543048/miniconda3/share/psi4/basis/jun-cc-pvtz.gbs 


         ---------------------------------------------------------
                                   SCF
               by Justin Turney, Rob Parrish, Andy Simmonett
                          and Daniel G. A. Smith
                              RHF Reference
                        1 Threads,  20980 MiB Core
         ---------------------------------------------------------

  ==> Geometry <==

    Molecular point group: c1
    Full point group: C1

    Geometry (in Angstrom), charge = 0, multiplicity = 1:

       Center              X                  Y                   Z               Mass       
    ------------   -----------------  -----------------  -----------------  -----------------
         C            2.438720232284     0.157323767632    -0.422642629389    12.000000000000
         C            1.462328232284    -1.000732232368    -0.309035629389    12.000000000000
         H            3.258671232284    -0.000049232368     0.284559370611     1.007825032230
         H            2.881994232284     0.131604767632    -1.421492629389     1.007825032230
         O            0.871610232284    -1.100651232368     0.988155370611    15.994914619570
         H            0.624887232284    -0.854393232368    -0.991976629389     1.007825032230
         H            1.951978232284    -1.941187232368    -0.577811629389     1.007825032230
         H            1.572981232284    -1.317845232368     1.611809370611     1.007825032230
         C            1.779678232284     1.506957767632    -0.170687629389    12.000000000000
         H            2.503570232284     2.318148767632    -0.237663629389     1.007825032230
         H            0.994956232284     1.694388767632    -0.904769629389     1.007825032230
         H            1.322953232284     1.535525767632     0.816910370611     1.007825032230
      Gh(C)          -2.440745767716    -1.036083232368    -0.433203629389    12.000000000000
      Gh(C)          -2.198874767716     0.460071767632    -0.594742629389    12.000000000000
      Gh(C)          -1.986822767716     1.144791767632     0.750039370611    12.000000000000
      Gh(H)          -1.602000767716    -1.504644232368     0.083156370611     1.007825032230
      Gh(H)          -3.338106767716    -1.216111232368     0.160857370611     1.007825032230
      Gh(H)          -2.573394767716    -1.530360232368    -1.395891629389     1.007825032230
      Gh(H)          -3.043368767716     0.917240767632    -1.115311629389     1.007825032230
      Gh(H)          -1.323724767716     0.623677767632    -1.228236629389     1.007825032230
      Gh(H)          -1.796118767716     2.211929767632     0.633976370611     1.007825032230
      Gh(H)          -2.868928767716     1.028310767632     1.381772370611     1.007825032230
      Gh(H)          -1.138949767716     0.698759767632     1.270675370611     1.007825032230

  Running in c1 symmetry.

  Rotational constants: A =      0.09930  B =      0.03728  C =      0.03215 [cm^-1]
  Rotational constants: A =   2977.02764  B =   1117.66848  C =    963.68416 [MHz]
  Nuclear repulsion =  132.709300581658709

  Charge       = 0
  Multiplicity = 1
  Electrons    = 34
  Nalpha       = 17
  Nbeta        = 17

  ==> Algorithm <==

  SCF Algorithm Type is DF.
  DIIS enabled.
  MOM disabled.
  Fractional occupation disabled.
  Guess Type is SAD.
  Energy threshold   = 1.00e-08
  Density threshold  = 1.00e-08
  Integral threshold = 0.00e+00

  ==> Primary Basis <==

  Basis Set: JUN-CC-PVTZ
    Blend: JUN-CC-PVTZ
    Number of shells: 187
    Number of basis function: 497
    Number of Cartesian functions: 555
    Spherical Harmonics?: true
    Max angular momentum: 3

   => Loading Basis Set <=

    Name: (JUN-CC-PVTZ AUX)
    Role: JKFIT
    Keyword: DF_BASIS_SCF
    atoms 1-2, 9, 13-15          entry C          line   152 file /home/r08543048/miniconda3/share/psi4/basis/jun-cc-pvtz-jkfit.gbs 
    atoms 3-4, 6-8, 10-12, 16-23 entry H          line    70 file /home/r08543048/miniconda3/share/psi4/basis/jun-cc-pvtz-jkfit.gbs 
    atoms 5                      entry O          line   272 file /home/r08543048/miniconda3/share/psi4/basis/jun-cc-pvtz-jkfit.gbs 

  ==> Pre-Iterations <==

   -------------------------------------------------------
    Irrep   Nso     Nmo     Nalpha   Nbeta   Ndocc  Nsocc
   -------------------------------------------------------
     A        497     497       0       0       0       0
   -------------------------------------------------------
    Total     497     497      17      17      17       0
   -------------------------------------------------------

  ==> Integral Setup <==

  ==> DiskDFJK: Density-Fitted J/K Matrices <==

    J tasked:                  Yes
    K tasked:                  Yes
    wK tasked:                  No
    OpenMP threads:              1
    Integrals threads:           1
    Memory [MiB]:            15735
    Algorithm:                Core
    Integral Cache:           LOAD
    Schwarz Cutoff:          1E-12
    Fitting Condition:       1E-10

   => Auxiliary Basis Set <=

  Basis Set: (JUN-CC-PVTZ AUX)
    Blend: JUN-CC-PVTZ-JKFIT
    Number of shells: 363
    Number of basis function: 1145
    Number of Cartesian functions: 1372
    Spherical Harmonics?: true
    Max angular momentum: 4

  Minimum eigenvalue in the overlap matrix is 5.6720060765E-05.
  Using Symmetric Orthogonalization.

  SCF Guess: Superposition of Atomic Densities via on-the-fly atomic UHF.

  ==> Iterations <==

                           Total Energy        Delta E     RMS |[F,P]|

   @DF-RHF iter SAD:  -192.49371787128456   -1.92494e+02   0.00000e+00 
   @DF-RHF iter   1:  -193.01130093503178   -5.17583e-01   1.15126e-03 DIIS
   @DF-RHF iter   2:  -193.15212263823133   -1.40822e-01   6.10643e-04 DIIS
   @DF-RHF iter   3:  -193.18943427566904   -3.73116e-02   1.03515e-04 DIIS
   @DF-RHF iter   4:  -193.19153613233667   -2.10186e-03   3.77366e-05 DIIS
   @DF-RHF iter   5:  -193.19173476554184   -1.98633e-04   8.53183e-06 DIIS
   @DF-RHF iter   6:  -193.19174908277029   -1.43172e-05   1.76173e-06 DIIS
   @DF-RHF iter   7:  -193.19175001293146   -9.30161e-07   4.43640e-07 DIIS
   @DF-RHF iter   8:  -193.19175006661771   -5.36863e-08   1.49009e-07 DIIS
   @DF-RHF iter   9:  -193.19175007269206   -6.07434e-09   3.99266e-08 DIIS
   @DF-RHF iter  10:  -193.19175007321394   -5.21879e-10   8.79510e-09 DIIS
  Energy and wave function converged.


  ==> Post-Iterations <==

    Orbital Energies [Eh]
    ---------------------

    Doubly Occupied:                                                      

       1A    -20.554790     2A    -11.271516     3A    -11.222241  
       4A    -11.209028     5A     -1.354758     6A     -1.051305  
       7A     -0.920030     8A     -0.811137     9A     -0.676451  
      10A     -0.637600    11A     -0.624410    12A     -0.563843  
      13A     -0.530999    14A     -0.521605    15A     -0.484559  
      16A     -0.471598    17A     -0.437650  

    Virtual:                                                              

      18A      0.039076    19A      0.050028    20A      0.054984  
      21A      0.057499    22A      0.068999    23A      0.071554  
      24A      0.077228    25A      0.091266    26A      0.093009  
      27A      0.107502    28A      0.112260    29A      0.113991  
      30A      0.116739    31A      0.121503    32A      0.129194  
      33A      0.138485    34A      0.140938    35A      0.150727  
      36A      0.154359    37A      0.158503    38A      0.164152  
      39A      0.173886    40A      0.199888    41A      0.206086  
      42A      0.207977    43A      0.229049    44A      0.231694  
      45A      0.246845    46A      0.255717    47A      0.268205  
      48A      0.274636    49A      0.275650    50A      0.282553  
      51A      0.292622    52A      0.296313    53A      0.300636  
      54A      0.304467    55A      0.321245    56A      0.325371  
      57A      0.333620    58A      0.341200    59A      0.345903  
      60A      0.350584    61A      0.355109    62A      0.356857  
      63A      0.362102    64A      0.374224    65A      0.377713  
      66A      0.381291    67A      0.389332    68A      0.394593  
      69A      0.402559    70A      0.403532    71A      0.406801  
      72A      0.420009    73A      0.425771    74A      0.442190  
      75A      0.447683    76A      0.451472    77A      0.477727  
      78A      0.485141    79A      0.487708    80A      0.499116  
      81A      0.502811    82A      0.510299    83A      0.516337  
      84A      0.527608    85A      0.530619    86A      0.542679  
      87A      0.546174    88A      0.550338    89A      0.565997  
      90A      0.574898    91A      0.582319    92A      0.587981  
      93A      0.592636    94A      0.610014    95A      0.614257  
      96A      0.621468    97A      0.627709    98A      0.639105  
      99A      0.648500   100A      0.656526   101A      0.657737  
     102A      0.671416   103A      0.672974   104A      0.684039  
     105A      0.703922   106A      0.712210   107A      0.728321  
     108A      0.734628   109A      0.749377   110A      0.761098  
     111A      0.765166   112A      0.777232   113A      0.785224  
     114A      0.804180   115A      0.811369   116A      0.819736  
     117A      0.832527   118A      0.834640   119A      0.845902  
     120A      0.862323   121A      0.872078   122A      0.885804  
     123A      0.904168   124A      0.911233   125A      0.931491  
     126A      0.953340   127A      0.973415   128A      1.010587  
     129A      1.015651   130A      1.027698   131A      1.041385  
     132A      1.052577   133A      1.070209   134A      1.075011  
     135A      1.095107   136A      1.097512   137A      1.111726  
     138A      1.122323   139A      1.135575   140A      1.150239  
     141A      1.161022   142A      1.169427   143A      1.171381  
     144A      1.185049   145A      1.194717   146A      1.221964  
     147A      1.228112   148A      1.234649   149A      1.239745  
     150A      1.242328   151A      1.267849   152A      1.282456  
     153A      1.290675   154A      1.295457   155A      1.308207  
     156A      1.318737   157A      1.331552   158A      1.336607  
     159A      1.341214   160A      1.353176   161A      1.363962  
     162A      1.374544   163A      1.387383   164A      1.391448  
     165A      1.407280   166A      1.413840   167A      1.420329  
     168A      1.425101   169A      1.438363   170A      1.444718  
     171A      1.455718   172A      1.463071   173A      1.469493  
     174A      1.480440   175A      1.491321   176A      1.504614  
     177A      1.520920   178A      1.538144   179A      1.544494  
     180A      1.556118   181A      1.558463   182A      1.568851  
     183A      1.582430   184A      1.595463   185A      1.605697  
     186A      1.609211   187A      1.625971   188A      1.635302  
     189A      1.648904   190A      1.659956   191A      1.668537  
     192A      1.674618   193A      1.686323   194A      1.689487  
     195A      1.705108   196A      1.708766   197A      1.716497  
     198A      1.732364   199A      1.734343   200A      1.743186  
     201A      1.771946   202A      1.793725   203A      1.799319  
     204A      1.828404   205A      1.852074   206A      1.857916  
     207A      1.873811   208A      1.878794   209A      1.894918  
     210A      1.897925   211A      1.923010   212A      1.945476  
     213A      1.963939   214A      1.974737   215A      1.997891  
     216A      2.041954   217A      2.054631   218A      2.065440  
     219A      2.101295   220A      2.154078   221A      2.185978  
     222A      2.198649   223A      2.204563   224A      2.277996  
     225A      2.337490   226A      2.358097   227A      2.397553  
     228A      2.404147   229A      2.417593   230A      2.466983  
     231A      2.489564   232A      2.504603   233A      2.508054  
     234A      2.561467   235A      2.591144   236A      2.601359  
     237A      2.614267   238A      2.643557   239A      2.793896  
     240A      2.814431   241A      2.841534   242A      2.859827  
     243A      2.885823   244A      2.947204   245A      2.965427  
     246A      2.970082   247A      3.006570   248A      3.027026  
     249A      3.072247   250A      3.120378   251A      3.134241  
     252A      3.151426   253A      3.174873   254A      3.186634  
     255A      3.256036   256A      3.278225   257A      3.292315  
     258A      3.309488   259A      3.346527   260A      3.353061  
     261A      3.383148   262A      3.418174   263A      3.442398  
     264A      3.447476   265A      3.447684   266A      3.465662  
     267A      3.468211   268A      3.493921   269A      3.504856  
     270A      3.520101   271A      3.523293   272A      3.542377  
     273A      3.544549   274A      3.552774   275A      3.574773  
     276A      3.574948   277A      3.589986   278A      3.604109  
     279A      3.609198   280A      3.619844   281A      3.621881  
     282A      3.638945   283A      3.643196   284A      3.648597  
     285A      3.681605   286A      3.699245   287A      3.712946  
     288A      3.723984   289A      3.733208   290A      3.736206  
     291A      3.746505   292A      3.770717   293A      3.788004  
     294A      3.800443   295A      3.805548   296A      3.820893  
     297A      3.832463   298A      3.847103   299A      3.852410  
     300A      3.880370   301A      3.897225   302A      3.907571  
     303A      3.910925   304A      3.921448   305A      3.935523  
     306A      3.937042   307A      3.962085   308A      3.968585  
     309A      3.973074   310A      3.988622   311A      4.004059  
     312A      4.044269   313A      4.075741   314A      4.083302  
     315A      4.088155   316A      4.091275   317A      4.114648  
     318A      4.136576   319A      4.143797   320A      4.162829  
     321A      4.180548   322A      4.187494   323A      4.196439  
     324A      4.231402   325A      4.239797   326A      4.257312  
     327A      4.270403   328A      4.282898   329A      4.293780  
     330A      4.306294   331A      4.324282   332A      4.333452  
     333A      4.356632   334A      4.362795   335A      4.377474  
     336A      4.386645   337A      4.392863   338A      4.404566  
     339A      4.410594   340A      4.428250   341A      4.437912  
     342A      4.459071   343A      4.460786   344A      4.465776  
     345A      4.472451   346A      4.492628   347A      4.505626  
     348A      4.519196   349A      4.524820   350A      4.528665  
     351A      4.543699   352A      4.553192   353A      4.557088  
     354A      4.571694   355A      4.589455   356A      4.598075  
     357A      4.608520   358A      4.620166   359A      4.641373  
     360A      4.653085   361A      4.656044   362A      4.683557  
     363A      4.687120   364A      4.694235   365A      4.705781  
     366A      4.711577   367A      4.724559   368A      4.743294  
     369A      4.748406   370A      4.761782   371A      4.778876  
     372A      4.791046   373A      4.800212   374A      4.825865  
     375A      4.828563   376A      4.829849   377A      4.839108  
     378A      4.849733   379A      4.852716   380A      4.872958  
     381A      4.877000   382A      4.897400   383A      4.900261  
     384A      4.913366   385A      4.928532   386A      4.949554  
     387A      4.959411   388A      4.965640   389A      4.976327  
     390A      4.984581   391A      4.994152   392A      5.008411  
     393A      5.026991   394A      5.039097   395A      5.042278  
     396A      5.067676   397A      5.071112   398A      5.096807  
     399A      5.137931   400A      5.146750   401A      5.156456  
     402A      5.173983   403A      5.181899   404A      5.186316  
     405A      5.204079   406A      5.228289   407A      5.237069  
     408A      5.260187   409A      5.289646   410A      5.302665  
     411A      5.310728   412A      5.342494   413A      5.386881  
     414A      5.397417   415A      5.405778   416A      5.421789  
     417A      5.477489   418A      5.478313   419A      5.492001  
     420A      5.522838   421A      5.581613   422A      5.601296  
     423A      5.611872   424A      5.627117   425A      5.635035  
     426A      5.640304   427A      5.657084   428A      5.681637  
     429A      5.759130   430A      5.769099   431A      5.803138  
     432A      5.837931   433A      5.845570   434A      5.847083  
     435A      5.877639   436A      5.919970   437A      5.936928  
     438A      5.939072   439A      5.974152   440A      5.996751  
     441A      6.039218   442A      6.079819   443A      6.095589  
     444A      6.129459   445A      6.199100   446A      6.210559  
     447A      6.269283   448A      6.297902   449A      6.351601  
     450A      6.362977   451A      6.393614   452A      6.431417  
     453A      6.432416   454A      6.450905   455A      6.501297  
     456A      6.510784   457A      6.518198   458A      6.526684  
     459A      6.560597   460A      6.602151   461A      6.635943  
     462A      6.782383   463A      6.911237   464A      6.926824  
     465A      6.997097   466A      7.073609   467A      7.252324  
     468A      7.311019   469A      7.325930   470A      7.423756  
     471A      7.501588   472A      7.529867   473A      7.582725  
     474A      7.599041   475A      7.640181   476A      7.655686  
     477A      7.702194   478A      7.705008   479A      7.813462  
     480A      7.845229   481A      7.862666   482A      7.876738  
     483A      7.921704   484A      8.058116   485A      8.187970  
     486A      8.224193   487A      8.506798   488A      9.568590  
     489A      9.902891   490A      9.931828   491A     13.678346  
     492A     13.931634   493A     14.081524   494A     14.627266  
     495A     44.270941   496A     45.376760   497A     45.864271  

    Final Occupation by Irrep:
              A 
    DOCC [    17 ]

  @DF-RHF Final Energy:  -193.19175007321394

   => Energetics <=

    Nuclear Repulsion Energy =            132.7093005816587095
    One-Electron Energy =                -525.1150551376777003
    Two-Electron Energy =                 199.2140044828050804
    Total Energy =                       -193.1917500732139388

Computation Completed


Properties will be evaluated at   0.000000,   0.000000,   0.000000 [a0]

Properties computed using the SCF density matrix

  Nuclear Dipole Moment: [e a0]
     X:   106.1445      Y:    -6.1562      Z:     2.0232

  Electronic Dipole Moment: [e a0]
     X:  -105.4549      Y:     6.1130      Z:    -2.2042

  Dipole Moment: [e a0]
     X:     0.6896      Y:    -0.0432      Z:    -0.1810     Total:     0.7142

  Dipole Moment: [D]
     X:     1.7527      Y:    -0.1099      Z:    -0.4601     Total:     1.8154


*** tstop() called on r282 at Fri Sep 10 23:06:29 2021
Module time:
	user time   =      33.28 seconds =       0.55 minutes
	system time =       0.64 seconds =       0.01 minutes
	total time  =         34 seconds =       0.57 minutes
Total time:
	user time   =      90.56 seconds =       1.51 minutes
	system time =       2.05 seconds =       0.03 minutes
	total time  =         92 seconds =       1.53 minutes

  //>>>>>>>>>>>>>>>>>>>>>>>>>>>>>>>>>>>//
  //            Monomer B HF           //
  //<<<<<<<<<<<<<<<<<<<<<<<<<<<<<<<<<<<//


*** tstart() called on r282
*** at Fri Sep 10 23:06:29 2021

   => Loading Basis Set <=

    Name: JUN-CC-PVTZ
    Role: ORBITAL
    Keyword: BASIS
    atoms 1-2, 9, 13-15          entry C          line   217 file /home/r08543048/miniconda3/share/psi4/basis/jun-cc-pvtz.gbs 
    atoms 3-4, 6-8, 10-12, 16-23 entry H          line    36 file /home/r08543048/miniconda3/share/psi4/basis/jun-cc-pvtz.gbs 
    atoms 5                      entry O          line   305 file /home/r08543048/miniconda3/share/psi4/basis/jun-cc-pvtz.gbs 


         ---------------------------------------------------------
                                   SCF
               by Justin Turney, Rob Parrish, Andy Simmonett
                          and Daniel G. A. Smith
                              RHF Reference
                        1 Threads,  20980 MiB Core
         ---------------------------------------------------------

  ==> Geometry <==

    Molecular point group: c1
    Full point group: C1

    Geometry (in Angstrom), charge = 0, multiplicity = 1:

       Center              X                  Y                   Z               Mass       
    ------------   -----------------  -----------------  -----------------  -----------------
      Gh(C)           2.438720232284     0.157323767632    -0.422642629389    12.000000000000
      Gh(C)           1.462328232284    -1.000732232368    -0.309035629389    12.000000000000
      Gh(H)           3.258671232284    -0.000049232368     0.284559370611     1.007825032230
      Gh(H)           2.881994232284     0.131604767632    -1.421492629389     1.007825032230
      Gh(O)           0.871610232284    -1.100651232368     0.988155370611    15.994914619570
      Gh(H)           0.624887232284    -0.854393232368    -0.991976629389     1.007825032230
      Gh(H)           1.951978232284    -1.941187232368    -0.577811629389     1.007825032230
      Gh(H)           1.572981232284    -1.317845232368     1.611809370611     1.007825032230
      Gh(C)           1.779678232284     1.506957767632    -0.170687629389    12.000000000000
      Gh(H)           2.503570232284     2.318148767632    -0.237663629389     1.007825032230
      Gh(H)           0.994956232284     1.694388767632    -0.904769629389     1.007825032230
      Gh(H)           1.322953232284     1.535525767632     0.816910370611     1.007825032230
         C           -2.440745767716    -1.036083232368    -0.433203629389    12.000000000000
         C           -2.198874767716     0.460071767632    -0.594742629389    12.000000000000
         C           -1.986822767716     1.144791767632     0.750039370611    12.000000000000
         H           -1.602000767716    -1.504644232368     0.083156370611     1.007825032230
         H           -3.338106767716    -1.216111232368     0.160857370611     1.007825032230
         H           -2.573394767716    -1.530360232368    -1.395891629389     1.007825032230
         H           -3.043368767716     0.917240767632    -1.115311629389     1.007825032230
         H           -1.323724767716     0.623677767632    -1.228236629389     1.007825032230
         H           -1.796118767716     2.211929767632     0.633976370611     1.007825032230
         H           -2.868928767716     1.028310767632     1.381772370611     1.007825032230
         H           -1.138949767716     0.698759767632     1.270675370611     1.007825032230

  Running in c1 symmetry.

  Rotational constants: A =      0.09930  B =      0.03728  C =      0.03215 [cm^-1]
  Rotational constants: A =   2977.02764  B =   1117.66848  C =    963.68416 [MHz]
  Nuclear repulsion =   82.846767821094815

  Charge       = 0
  Multiplicity = 1
  Electrons    = 26
  Nalpha       = 13
  Nbeta        = 13

  ==> Algorithm <==

  SCF Algorithm Type is DF.
  DIIS enabled.
  MOM disabled.
  Fractional occupation disabled.
  Guess Type is SAD.
  Energy threshold   = 1.00e-08
  Density threshold  = 1.00e-08
  Integral threshold = 0.00e+00

  ==> Primary Basis <==

  Basis Set: JUN-CC-PVTZ
    Blend: JUN-CC-PVTZ
    Number of shells: 187
    Number of basis function: 497
    Number of Cartesian functions: 555
    Spherical Harmonics?: true
    Max angular momentum: 3

   => Loading Basis Set <=

    Name: (JUN-CC-PVTZ AUX)
    Role: JKFIT
    Keyword: DF_BASIS_SCF
    atoms 1-2, 9, 13-15          entry C          line   152 file /home/r08543048/miniconda3/share/psi4/basis/jun-cc-pvtz-jkfit.gbs 
    atoms 3-4, 6-8, 10-12, 16-23 entry H          line    70 file /home/r08543048/miniconda3/share/psi4/basis/jun-cc-pvtz-jkfit.gbs 
    atoms 5                      entry O          line   272 file /home/r08543048/miniconda3/share/psi4/basis/jun-cc-pvtz-jkfit.gbs 

  ==> Pre-Iterations <==

   -------------------------------------------------------
    Irrep   Nso     Nmo     Nalpha   Nbeta   Ndocc  Nsocc
   -------------------------------------------------------
     A        497     497       0       0       0       0
   -------------------------------------------------------
    Total     497     497      13      13      13       0
   -------------------------------------------------------

  ==> Integral Setup <==

  ==> DiskDFJK: Density-Fitted J/K Matrices <==

    J tasked:                  Yes
    K tasked:                  Yes
    wK tasked:                  No
    OpenMP threads:              1
    Integrals threads:           1
    Memory [MiB]:            15735
    Algorithm:                Core
    Integral Cache:           LOAD
    Schwarz Cutoff:          1E-12
    Fitting Condition:       1E-10

   => Auxiliary Basis Set <=

  Basis Set: (JUN-CC-PVTZ AUX)
    Blend: JUN-CC-PVTZ-JKFIT
    Number of shells: 363
    Number of basis function: 1145
    Number of Cartesian functions: 1372
    Spherical Harmonics?: true
    Max angular momentum: 4

  Minimum eigenvalue in the overlap matrix is 5.6720060765E-05.
  Using Symmetric Orthogonalization.

  SCF Guess: Superposition of Atomic Densities via on-the-fly atomic UHF.

  ==> Iterations <==

                           Total Energy        Delta E     RMS |[F,P]|

   @DF-RHF iter SAD:  -117.72705643172685   -1.17727e+02   0.00000e+00 
   @DF-RHF iter   1:  -118.14630029764021   -4.19244e-01   1.03700e-03 DIIS
   @DF-RHF iter   2:  -118.27565947586422   -1.29359e-01   4.90651e-04 DIIS
   @DF-RHF iter   3:  -118.30608584181272   -3.04264e-02   8.24710e-05 DIIS
   @DF-RHF iter   4:  -118.30793743590351   -1.85159e-03   1.62839e-05 DIIS
   @DF-RHF iter   5:  -118.30799588111846   -5.84452e-05   4.58106e-06 DIIS
   @DF-RHF iter   6:  -118.30800052106785   -4.63995e-06   8.23723e-07 DIIS
   @DF-RHF iter   7:  -118.30800069395804   -1.72890e-07   1.55527e-07 DIIS
   @DF-RHF iter   8:  -118.30800070156016   -7.60213e-09   2.74177e-08 DIIS
   @DF-RHF iter   9:  -118.30800070180200   -2.41840e-10   5.42049e-09 DIIS
  Energy and wave function converged.


  ==> Post-Iterations <==

    Orbital Energies [Eh]
    ---------------------

    Doubly Occupied:                                                      

       1A    -11.215520     2A    -11.207933     3A    -11.207870  
       4A     -1.054178     5A     -0.924423     6A     -0.799569  
       7A     -0.624953     8A     -0.598700     9A     -0.548877  
      10A     -0.530359    11A     -0.475772    12A     -0.474513  
      13A     -0.467945  

    Virtual:                                                              

      14A      0.034825    15A      0.047898    16A      0.054132  
      17A      0.056359    18A      0.069007    19A      0.071203  
      20A      0.077069    21A      0.088613    22A      0.091338  
      23A      0.104605    24A      0.109221    25A      0.112663  
      26A      0.115336    27A      0.116126    28A      0.134291  
      29A      0.138575    30A      0.145036    31A      0.146139  
      32A      0.152487    33A      0.161696    34A      0.172918  
      35A      0.174882    36A      0.180094    37A      0.193114  
      38A      0.205926    39A      0.214869    40A      0.219644  
      41A      0.231140    42A      0.244632    43A      0.248498  
      44A      0.271396    45A      0.280645    46A      0.286859  
      47A      0.293615    48A      0.300436    49A      0.307193  
      50A      0.308883    51A      0.313595    52A      0.319268  
      53A      0.330308    54A      0.338874    55A      0.345746  
      56A      0.352040    57A      0.353312    58A      0.359334  
      59A      0.363930    60A      0.369790    61A      0.375612  
      62A      0.376711    63A      0.388543    64A      0.389198  
      65A      0.396129    66A      0.406523    67A      0.416794  
      68A      0.424972    69A      0.430390    70A      0.437790  
      71A      0.440460    72A      0.445986    73A      0.450156  
      74A      0.459239    75A      0.474338    76A      0.481939  
      77A      0.504076    78A      0.509374    79A      0.510249  
      80A      0.521403    81A      0.526228    82A      0.533722  
      83A      0.546277    84A      0.549654    85A      0.558870  
      86A      0.567002    87A      0.572187    88A      0.579117  
      89A      0.589754    90A      0.599991    91A      0.603366  
      92A      0.616501    93A      0.635597    94A      0.646016  
      95A      0.651441    96A      0.659480    97A      0.664337  
      98A      0.676011    99A      0.681965   100A      0.693587  
     101A      0.712885   102A      0.713452   103A      0.741375  
     104A      0.748686   105A      0.757467   106A      0.776878  
     107A      0.780617   108A      0.789721   109A      0.805258  
     110A      0.806346   111A      0.818626   112A      0.824578  
     113A      0.836901   114A      0.847446   115A      0.855917  
     116A      0.865125   117A      0.877067   118A      0.881538  
     119A      0.898313   120A      0.904946   121A      0.954571  
     122A      0.958020   123A      0.966414   124A      0.976500  
     125A      0.985004   126A      0.994240   127A      1.003726  
     128A      1.014561   129A      1.027722   130A      1.036099  
     131A      1.057064   132A      1.065660   133A      1.095591  
     134A      1.118236   135A      1.125673   136A      1.136054  
     137A      1.141030   138A      1.148654   139A      1.164193  
     140A      1.172402   141A      1.191873   142A      1.203991  
     143A      1.206918   144A      1.227569   145A      1.236335  
     146A      1.244289   147A      1.262581   148A      1.268201  
     149A      1.276241   150A      1.295146   151A      1.300321  
     152A      1.316801   153A      1.328726   154A      1.336256  
     155A      1.343094   156A      1.351168   157A      1.360024  
     158A      1.369835   159A      1.378233   160A      1.387092  
     161A      1.393023   162A      1.415710   163A      1.426339  
     164A      1.436400   165A      1.438881   166A      1.441945  
     167A      1.452704   168A      1.462431   169A      1.475840  
     170A      1.495384   171A      1.503871   172A      1.510099  
     173A      1.516850   174A      1.533099   175A      1.549572  
     176A      1.552522   177A      1.565694   178A      1.570915  
     179A      1.575904   180A      1.590800   181A      1.608083  
     182A      1.616175   183A      1.620667   184A      1.627957  
     185A      1.644777   186A      1.647249   187A      1.658999  
     188A      1.667005   189A      1.680623   190A      1.687289  
     191A      1.713819   192A      1.718742   193A      1.723469  
     194A      1.739004   195A      1.764873   196A      1.777809  
     197A      1.800582   198A      1.803615   199A      1.823658  
     200A      1.841076   201A      1.852492   202A      1.867175  
     203A      1.874878   204A      1.893431   205A      1.900430  
     206A      1.923358   207A      1.941660   208A      1.954864  
     209A      1.976562   210A      1.982485   211A      2.007832  
     212A      2.022147   213A      2.051113   214A      2.079915  
     215A      2.120001   216A      2.139637   217A      2.158988  
     218A      2.204627   219A      2.218386   220A      2.237900  
     221A      2.359295   222A      2.386102   223A      2.407761  
     224A      2.445415   225A      2.520047   226A      2.538528  
     227A      2.572353   228A      2.618672   229A      2.662905  
     230A      2.732296   231A      2.747354   232A      2.759838  
     233A      2.796550   234A      2.809886   235A      2.839241  
     236A      2.851495   237A      2.876005   238A      2.919795  
     239A      2.922271   240A      2.933363   241A      2.954870  
     242A      2.972037   243A      2.993287   244A      3.016174  
     245A      3.026988   246A      3.048605   247A      3.057725  
     248A      3.101957   249A      3.106772   250A      3.142797  
     251A      3.171657   252A      3.176912   253A      3.236127  
     254A      3.262889   255A      3.276207   256A      3.287907  
     257A      3.307456   258A      3.329340   259A      3.336368  
     260A      3.370867   261A      3.379523   262A      3.392000  
     263A      3.431011   264A      3.441508   265A      3.454482  
     266A      3.479449   267A      3.491670   268A      3.497623  
     269A      3.499934   270A      3.519452   271A      3.535283  
     272A      3.537589   273A      3.552856   274A      3.568057  
     275A      3.585776   276A      3.592121   277A      3.599395  
     278A      3.606505   279A      3.614721   280A      3.628478  
     281A      3.632561   282A      3.655651   283A      3.670993  
     284A      3.703388   285A      3.727473   286A      3.732425  
     287A      3.752678   288A      3.768001   289A      3.769149  
     290A      3.775866   291A      3.800901   292A      3.809518  
     293A      3.823388   294A      3.832956   295A      3.835863  
     296A      3.843128   297A      3.847708   298A      3.864770  
     299A      3.879624   300A      3.911345   301A      3.919811  
     302A      3.931373   303A      3.945866   304A      3.949892  
     305A      3.957620   306A      3.963614   307A      3.975372  
     308A      3.978833   309A      4.032499   310A      4.045727  
     311A      4.072422   312A      4.103789   313A      4.112020  
     314A      4.121255   315A      4.137644   316A      4.163898  
     317A      4.196127   318A      4.206217   319A      4.217683  
     320A      4.224276   321A      4.239270   322A      4.242018  
     323A      4.251281   324A      4.265817   325A      4.293705  
     326A      4.309446   327A      4.321751   328A      4.331449  
     329A      4.341325   330A      4.360916   331A      4.365662  
     332A      4.368661   333A      4.395299   334A      4.412939  
     335A      4.422854   336A      4.428709   337A      4.434816  
     338A      4.453090   339A      4.478012   340A      4.491915  
     341A      4.496869   342A      4.504062   343A      4.513019  
     344A      4.523293   345A      4.530790   346A      4.535425  
     347A      4.541741   348A      4.546343   349A      4.558830  
     350A      4.571474   351A      4.579587   352A      4.610074  
     353A      4.613240   354A      4.639452   355A      4.645540  
     356A      4.656430   357A      4.673492   358A      4.689781  
     359A      4.695145   360A      4.700879   361A      4.718335  
     362A      4.730802   363A      4.744488   364A      4.754004  
     365A      4.756433   366A      4.788024   367A      4.790598  
     368A      4.799402   369A      4.810108   370A      4.818943  
     371A      4.825733   372A      4.832071   373A      4.842400  
     374A      4.859808   375A      4.880667   376A      4.896266  
     377A      4.898608   378A      4.909959   379A      4.917844  
     380A      4.946474   381A      4.957487   382A      4.969606  
     383A      4.976516   384A      4.985830   385A      4.993156  
     386A      5.006631   387A      5.015566   388A      5.032625  
     389A      5.042294   390A      5.047517   391A      5.068139  
     392A      5.078585   393A      5.105461   394A      5.129885  
     395A      5.143364   396A      5.151446   397A      5.169199  
     398A      5.170234   399A      5.187484   400A      5.207596  
     401A      5.259186   402A      5.268288   403A      5.272345  
     404A      5.285304   405A      5.290847   406A      5.302937  
     407A      5.312947   408A      5.346768   409A      5.360395  
     410A      5.392828   411A      5.420888   412A      5.460943  
     413A      5.486563   414A      5.505135   415A      5.527607  
     416A      5.558775   417A      5.589875   418A      5.592865  
     419A      5.611307   420A      5.615291   421A      5.677320  
     422A      5.727154   423A      5.733845   424A      5.754587  
     425A      5.771269   426A      5.783173   427A      5.799872  
     428A      5.809839   429A      5.817317   430A      5.822923  
     431A      5.863426   432A      5.905390   433A      5.930593  
     434A      5.935874   435A      5.960371   436A      5.970956  
     437A      5.991171   438A      6.031114   439A      6.084960  
     440A      6.100862   441A      6.160059   442A      6.214259  
     443A      6.243541   444A      6.315524   445A      6.354439  
     446A      6.359883   447A      6.405440   448A      6.454120  
     449A      6.467067   450A      6.486993   451A      6.531905  
     452A      6.544328   453A      6.557071   454A      6.589166  
     455A      6.631203   456A      6.696780   457A      6.873105  
     458A      6.951087   459A      7.002111   460A      7.132134  
     461A      7.294216   462A      7.392766   463A      7.478146  
     464A      7.497670   465A      7.563573   466A      7.620245  
     467A      7.676863   468A      7.688109   469A      7.749042  
     470A      7.807636   471A      7.869925   472A      7.941803  
     473A      7.986775   474A      8.051180   475A      8.213001  
     476A      8.353841   477A      8.486569   478A      8.614815  
     479A      9.547489   480A      9.614235   481A      9.774564  
     482A      9.872645   483A      9.922105   484A     10.020364  
     485A     10.124906   486A     10.324124   487A     11.332638  
     488A     11.683028   489A     12.761165   490A     13.530331  
     491A     13.826766   492A     14.469022   493A     14.703290  
     494A     43.966222   495A     44.977041   496A     45.698053  
     497A     61.416133  

    Final Occupation by Irrep:
              A 
    DOCC [    13 ]

  @DF-RHF Final Energy:  -118.30800070180200

   => Energetics <=

    Nuclear Repulsion Energy =             82.8467678210948151
    One-Electron Energy =                -322.0483148477305804
    Two-Electron Energy =                 120.8935463248337498
    Total Energy =                       -118.3080007018020012

Computation Completed


Properties will be evaluated at   0.000000,   0.000000,   0.000000 [a0]

Properties computed using the SCF density matrix

  Nuclear Dipole Moment: [e a0]
     X:  -108.5520      Y:     8.7711      Z:    -3.5460

  Electronic Dipole Moment: [e a0]
     X:   108.5517      Y:    -8.7553      Z:     3.5171

  Dipole Moment: [e a0]
     X:    -0.0003      Y:     0.0158      Z:    -0.0289     Total:     0.0330

  Dipole Moment: [D]
     X:    -0.0008      Y:     0.0402      Z:    -0.0735     Total:     0.0838


*** tstop() called on r282 at Fri Sep 10 23:07:04 2021
Module time:
	user time   =      33.59 seconds =       0.56 minutes
	system time =       0.58 seconds =       0.01 minutes
	total time  =         35 seconds =       0.58 minutes
Total time:
	user time   =     124.16 seconds =       2.07 minutes
	system time =       2.63 seconds =       0.04 minutes
	total time  =        127 seconds =       2.12 minutes
  Constructing Basis Sets for SAPT...

   => Loading Basis Set <=

    Name: (JUN-CC-PVTZ AUX)
    Role: RIFIT
    Keyword: DF_BASIS_SAPT
    atoms 1-2, 9, 13-15          entry C          line   132 file /home/r08543048/miniconda3/share/psi4/basis/jun-cc-pvtz-ri.gbs 
    atoms 3-4, 6-8, 10-12, 16-23 entry H          line    30 file /home/r08543048/miniconda3/share/psi4/basis/jun-cc-pvtz-ri.gbs 
    atoms 5                      entry O          line   244 file /home/r08543048/miniconda3/share/psi4/basis/jun-cc-pvtz-ri.gbs 


  //>>>>>>>>>>>>>>>>>>>>>>>>>>>>>>>>>>>//
  //               SAPT0               //
  //<<<<<<<<<<<<<<<<<<<<<<<<<<<<<<<<<<<//


*** tstart() called on r282
*** at Fri Sep 10 23:07:04 2021

        SAPT0  
    Ed Hohenstein
     6 June 2009

      Orbital Information
  --------------------------
    NSO        =       497
    NMO        =       497
    NRI        =      1159
    NOCC A     =        17
    NOCC B     =        13
    FOCC A     =         0
    FOCC B     =         0
    NVIR A     =       480
    NVIR B     =       484

    Elst10,r            =    -0.002477458721 [Eh]
    Exch10              =     0.005584136956 [Eh]
    Exch10 (S^2)        =     0.005577521935 [Eh]

    Iter     Energy [mEh]          dE [mEh]         Residual      Time [s]
       1      -0.29134809       0.291348094       2.180874573             1
       2      -0.35204571       0.060697612       0.355189505             2
       3      -0.35147608      -0.000569621       0.103194482             3
       4      -0.35095822      -0.000517869       0.028756112             4
       5      -0.35099314       0.000034928       0.010214163             5
       6      -0.35103276       0.000039619       0.002754467             6
       7      -0.35103221      -0.000000557       0.000948372             7
       8      -0.35102865      -0.000003557       0.000219297             8
       9      -0.35102901       0.000000365       0.000061083             9
      10      -0.35102914       0.000000123       0.000016007            10
      11      -0.35102911      -0.000000022       0.000004480            11
      12      -0.35102911      -0.000000008       0.000001132            12
      13      -0.35102911       0.000000002       0.000000310            13

    CHF Iterations converged


    Iter     Energy [mEh]          dE [mEh]         Residual      Time [s]
       1      -0.89433999       0.894339995       4.454613302             1
       2      -1.01247160       0.118131601       1.496637425             2
       3      -1.03875697       0.026285373       0.335186239             3
       4      -1.03624396      -0.002513009       0.110701927             4
       5      -1.03477574      -0.001468217       0.017048349             5
       6      -1.03496640       0.000190653       0.004712895             6
       7      -1.03498608       0.000019681       0.001096541             7
       8      -1.03497704      -0.000009037       0.000244996             8
       9      -1.03497691      -0.000000134       0.000057325             8
      10      -1.03497728       0.000000374       0.000011996             9
      11      -1.03497726      -0.000000020       0.000003267            10
      12      -1.03497725      -0.000000012       0.000000838            11

    CHF Iterations converged

    Ind20,r (A<-B)      =    -0.000351029109 [Eh]
    Ind20,r (B<-A)      =    -0.001034977247 [Eh]
    Ind20,r             =    -0.001386006356 [Eh]
    Exch-Ind20,r (A<-B) =     0.000281301111 [Eh]
    Exch-Ind20,r (B<-A) =     0.000586450981 [Eh]
    Exch-Ind20,r        =     0.000867752092 [Eh]
    Disp20              =    -0.007025704672 [Eh]
    Disp20 (SS)         =    -0.003512852336 [Eh]
    Disp20 (OS)         =    -0.003512852336 [Eh]
    Exch-Disp20         =     0.000596469777 [Eh]
    Exch-Disp20 (SS)    =     0.000387979087 [Eh]
    Exch-Disp20 (OS)    =     0.000208490690 [Eh]

    SAPT Results 
  --------------------------------------------------------------------------------------------------------
    Electrostatics                 -2.47745872 [mEh]      -1.55462882 [kcal/mol]      -6.50456698 [kJ/mol]
      Elst10,r                     -2.47745872 [mEh]      -1.55462882 [kcal/mol]      -6.50456698 [kJ/mol]

    Exchange                        5.58413696 [mEh]       3.50409884 [kcal/mol]      14.66114956 [kJ/mol]
      Exch10                        5.58413696 [mEh]       3.50409884 [kcal/mol]      14.66114956 [kJ/mol]
      Exch10(S^2)                   5.57752193 [mEh]       3.49994785 [kcal/mol]      14.64378182 [kJ/mol]

    Induction                      -0.92746190 [mEh]      -0.58199113 [kcal/mol]      -2.43505088 [kJ/mol]
      Ind20,r                      -1.38600636 [mEh]      -0.86973212 [kcal/mol]      -3.63895919 [kJ/mol]
      Exch-Ind20,r                  0.86775209 [mEh]       0.54452266 [kcal/mol]       2.27828280 [kJ/mol]
      delta HF,r (2)               -0.40920763 [mEh]      -0.25678167 [kcal/mol]      -1.07437449 [kJ/mol]

    Dispersion                     -6.42923490 [mEh]      -4.03440581 [kcal/mol]     -16.87995389 [kJ/mol]
      Disp20                       -7.02570467 [mEh]      -4.40869624 [kcal/mol]     -18.44598508 [kJ/mol]
      Exch-Disp20                   0.59646978 [mEh]       0.37429044 [kcal/mol]       1.56603118 [kJ/mol]
      Disp20 (SS)                  -3.51285234 [mEh]      -2.20434812 [kcal/mol]      -9.22299254 [kJ/mol]
      Disp20 (OS)                  -3.51285234 [mEh]      -2.20434812 [kcal/mol]      -9.22299254 [kJ/mol]
      Exch-Disp20 (SS)              0.38797909 [mEh]       0.24346055 [kcal/mol]       1.01863895 [kJ/mol]
      Exch-Disp20 (OS)              0.20849069 [mEh]       0.13082988 [kcal/mol]       0.54739223 [kJ/mol]

  Total HF                          2.17921634 [mEh]       1.36747890 [kcal/mol]       5.72153170 [kJ/mol]
  Total SAPT0                      -4.25001856 [mEh]      -2.66692691 [kcal/mol]     -11.15842219 [kJ/mol]

  Special recipe for scaled SAPT0 (see Manual):
    Electrostatics sSAPT0          -2.47745872 [mEh]      -1.55462882 [kcal/mol]      -6.50456698 [kJ/mol]
    Exchange sSAPT0                 5.58413696 [mEh]       3.50409884 [kcal/mol]      14.66114956 [kJ/mol]
    Induction sSAPT0               -0.92437074 [mEh]      -0.58005139 [kcal/mol]      -2.42693503 [kJ/mol]
    Dispersion sSAPT0              -6.42711011 [mEh]      -4.03307248 [kcal/mol]     -16.87437528 [kJ/mol]
  Total sSAPT0                     -4.24480261 [mEh]      -2.66365385 [kcal/mol]     -11.14472773 [kJ/mol]
  --------------------------------------------------------------------------------------------------------

*** tstop() called on r282 at Fri Sep 10 23:08:56 2021
Module time:
	user time   =      95.89 seconds =       1.60 minutes
	system time =      15.58 seconds =       0.26 minutes
	total time  =        112 seconds =       1.87 minutes
Total time:
	user time   =     220.20 seconds =       3.67 minutes
	system time =      18.21 seconds =       0.30 minutes
	total time  =        239 seconds =       3.98 minutes

    Psi4 stopped on: Friday, 10 September 2021 11:08PM
    Psi4 wall time for execution: 0:03:59.22

*** Psi4 exiting successfully. Buy a developer a beer!
