
    -----------------------------------------------------------------------
          Psi4: An Open-Source Ab Initio Electronic Structure Package
                               Psi4 1.3.2 release

                         Git: Rev {HEAD} ecbda83 


    R. M. Parrish, L. A. Burns, D. G. A. Smith, A. C. Simmonett,
    A. E. DePrince III, E. G. Hohenstein, U. Bozkaya, A. Yu. Sokolov,
    R. Di Remigio, R. M. Richard, J. F. Gonthier, A. M. James,
    H. R. McAlexander, A. Kumar, M. Saitow, X. Wang, B. P. Pritchard,
    P. Verma, H. F. Schaefer III, K. Patkowski, R. A. King, E. F. Valeev,
    F. A. Evangelista, J. M. Turney, T. D. Crawford, and C. D. Sherrill,
    J. Chem. Theory Comput. 13(7) pp 3185--3197 (2017).
    (doi: 10.1021/acs.jctc.7b00174)


                         Additional Contributions by
    P. Kraus, H. Kruse, M. H. Lechner, M. C. Schieber, R. A. Shaw,
    A. Alenaizan, R. Galvelis, Z. L. Glick, S. Lehtola, and J. P. Misiewicz

    -----------------------------------------------------------------------


    Psi4 started on: Friday, 10 September 2021 10:31PM

    Process ID: 57264
    Host:       r282
    PSIDATADIR: /home/r08543048/miniconda3/share/psi4
    Memory:     500.0 MiB
    Threads:    1
    
  ==> Input File <==

--------------------------------------------------------------------------
# Any line starting with the # character is a comment line
#! Sample  computation

memory 22 gb

molecule Dimer {
0 1
 C 2.162689   -0.114844   -0.768437
 C 1.565004   -1.337949   -0.091634
 H 3.094696    0.160223   -0.261751
 H 2.443969   -0.420801   -1.780510
 O 1.287908   -1.161466    1.298684
 H 0.602603   -1.578166   -0.544868
 H 2.223994   -2.199645   -0.237000
 H 2.124047   -0.980584    1.741386
 C 1.239186    1.100595   -0.850238
 H 1.641616    1.789243   -1.596697
 H 0.264668    0.776168   -1.226553
 C 1.060389    1.852468    0.465381
 H 2.029018    2.172848    0.854244
 H 0.450013    2.744203    0.321862
 H 0.585625    1.227933    1.218113
    
    
    
 --
0 1
 C  -2.578831    1.101256    0.269280
 C  -2.195448   -0.361158    0.459141
 C  -2.348203   -1.159405   -0.830111
 H  -1.952885    1.570447   -0.491648
 H  -3.616786    1.190969   -0.055415
 H  -2.464030    1.670126    1.191769
 H  -2.822384   -0.804341    1.235746
 H  -1.167249   -0.432172    0.819116
 H  -2.067071   -2.203797   -0.693031
 H  -3.380375   -1.133566   -1.183198
 H  -1.721450   -0.743134   -1.621329
 







units angstrom

no_reorient
symmetry c1
}

set globals{
  basis jun-cc-pvtz
}

energy('sapt0')


--------------------------------------------------------------------------

  Memory set to  20.489 GiB by Python driver.

  //>>>>>>>>>>>>>>>>>>>>>>>>>>>>>>>>>>>//
  //              Dimer HF             //
  //<<<<<<<<<<<<<<<<<<<<<<<<<<<<<<<<<<<//


*** tstart() called on r282
*** at Fri Sep 10 22:31:08 2021

   => Loading Basis Set <=

    Name: JUN-CC-PVTZ
    Role: ORBITAL
    Keyword: BASIS
    atoms 1-2, 9, 12, 16-18             entry C          line   217 file /home/r08543048/miniconda3/share/psi4/basis/jun-cc-pvtz.gbs 
    atoms 3-4, 6-8, 10-11, 13-15, 19-26 entry H          line    36 file /home/r08543048/miniconda3/share/psi4/basis/jun-cc-pvtz.gbs 
    atoms 5                             entry O          line   305 file /home/r08543048/miniconda3/share/psi4/basis/jun-cc-pvtz.gbs 


         ---------------------------------------------------------
                                   SCF
               by Justin Turney, Rob Parrish, Andy Simmonett
                          and Daniel G. A. Smith
                              RHF Reference
                        1 Threads,  20980 MiB Core
         ---------------------------------------------------------

  ==> Geometry <==

    Molecular point group: c1
    Full point group: C1

    Geometry (in Angstrom), charge = 0, multiplicity = 1:

       Center              X                  Y                   Z               Mass       
    ------------   -----------------  -----------------  -----------------  -----------------
         C            2.131401043977    -0.091327981643    -0.787779878223    12.000000000000
         C            1.533716043977    -1.314432981643    -0.110976878223    12.000000000000
         H            3.063408043977     0.183739018357    -0.281093878223     1.007825032230
         H            2.412681043977    -0.397284981643    -1.799852878223     1.007825032230
         O            1.256620043977    -1.137949981643     1.279341121777    15.994914619570
         H            0.571315043977    -1.554649981643    -0.564210878223     1.007825032230
         H            2.192706043977    -2.176128981643    -0.256342878223     1.007825032230
         H            2.092759043977    -0.957067981643     1.722043121777     1.007825032230
         C            1.207898043977     1.124111018357    -0.869580878223    12.000000000000
         H            1.610328043977     1.812759018357    -1.616039878223     1.007825032230
         H            0.233380043977     0.799684018357    -1.245895878223     1.007825032230
         C            1.029101043977     1.875984018357     0.446038121777    12.000000000000
         H            1.997730043977     2.196364018357     0.834901121777     1.007825032230
         H            0.418725043977     2.767719018357     0.302519121777     1.007825032230
         H            0.554337043977     1.251449018357     1.198770121777     1.007825032230
         C           -2.610118956023     1.124772018357     0.249937121777    12.000000000000
         C           -2.226735956023    -0.337641981643     0.439798121777    12.000000000000
         C           -2.379490956023    -1.135888981643    -0.849453878223    12.000000000000
         H           -1.984172956023     1.593963018357    -0.510990878223     1.007825032230
         H           -3.648073956023     1.214485018357    -0.074757878223     1.007825032230
         H           -2.495317956023     1.693642018357     1.172426121777     1.007825032230
         H           -2.853671956023    -0.780824981643     1.216403121777     1.007825032230
         H           -1.198536956023    -0.408655981643     0.799773121777     1.007825032230
         H           -2.098358956023    -2.180280981643    -0.712373878223     1.007825032230
         H           -3.411662956023    -1.110049981643    -1.202540878223     1.007825032230
         H           -1.752737956023    -0.719617981643    -1.640671878223     1.007825032230

  Running in c1 symmetry.

  Rotational constants: A =      0.06736  B =      0.03302  C =      0.02791 [cm^-1]
  Rotational constants: A =   2019.32651  B =    990.04165  C =    836.72997 [MHz]
  Nuclear repulsion =  410.190950937917933

  Charge       = 0
  Multiplicity = 1
  Electrons    = 68
  Nalpha       = 34
  Nbeta        = 34

  ==> Algorithm <==

  SCF Algorithm Type is DF.
  DIIS enabled.
  MOM disabled.
  Fractional occupation disabled.
  Guess Type is SAD.
  Energy threshold   = 1.00e-08
  Density threshold  = 1.00e-08
  Integral threshold = 0.00e+00

  ==> Primary Basis <==

  Basis Set: JUN-CC-PVTZ
    Blend: JUN-CC-PVTZ
    Number of shells: 212
    Number of basis function: 564
    Number of Cartesian functions: 630
    Spherical Harmonics?: true
    Max angular momentum: 3

   => Loading Basis Set <=

    Name: (JUN-CC-PVTZ AUX)
    Role: JKFIT
    Keyword: DF_BASIS_SCF
    atoms 1-2, 9, 12, 16-18             entry C          line   152 file /home/r08543048/miniconda3/share/psi4/basis/jun-cc-pvtz-jkfit.gbs 
    atoms 3-4, 6-8, 10-11, 13-15, 19-26 entry H          line    70 file /home/r08543048/miniconda3/share/psi4/basis/jun-cc-pvtz-jkfit.gbs 
    atoms 5                             entry O          line   272 file /home/r08543048/miniconda3/share/psi4/basis/jun-cc-pvtz-jkfit.gbs 

  ==> Pre-Iterations <==

   -------------------------------------------------------
    Irrep   Nso     Nmo     Nalpha   Nbeta   Ndocc  Nsocc
   -------------------------------------------------------
     A        564     564       0       0       0       0
   -------------------------------------------------------
    Total     564     564      34      34      34       0
   -------------------------------------------------------

  ==> Integral Setup <==

  ==> DiskDFJK: Density-Fitted J/K Matrices <==

    J tasked:                  Yes
    K tasked:                  Yes
    wK tasked:                  No
    OpenMP threads:              1
    Integrals threads:           1
    Memory [MiB]:            15735
    Algorithm:                Core
    Integral Cache:           SAVE
    Schwarz Cutoff:          1E-12
    Fitting Condition:       1E-10

   => Auxiliary Basis Set <=

  Basis Set: (JUN-CC-PVTZ AUX)
    Blend: JUN-CC-PVTZ-JKFIT
    Number of shells: 412
    Number of basis function: 1300
    Number of Cartesian functions: 1558
    Spherical Harmonics?: true
    Max angular momentum: 4

  Minimum eigenvalue in the overlap matrix is 3.8840157252E-05.
  Using Symmetric Orthogonalization.

  SCF Guess: Superposition of Atomic Densities via on-the-fly atomic UHF.

  ==> Iterations <==

                           Total Energy        Delta E     RMS |[F,P]|

   @DF-RHF iter SAD:  -349.46194725850950   -3.49462e+02   0.00000e+00 
   @DF-RHF iter   1:  -350.15342763735873   -6.91480e-01   1.43746e-03 DIIS
   @DF-RHF iter   2:  -350.45815888962466   -3.04731e-01   7.30472e-04 DIIS
   @DF-RHF iter   3:  -350.53604388654281   -7.78850e-02   1.30067e-04 DIIS
   @DF-RHF iter   4:  -350.54072246726355   -4.67858e-03   4.32797e-05 DIIS
   @DF-RHF iter   5:  -350.54105782420640   -3.35357e-04   1.09719e-05 DIIS
   @DF-RHF iter   6:  -350.54108436098664   -2.65368e-05   2.59137e-06 DIIS
   @DF-RHF iter   7:  -350.54108627518252   -1.91420e-06   6.16593e-07 DIIS
   @DF-RHF iter   8:  -350.54108639272965   -1.17547e-07   1.82376e-07 DIIS
   @DF-RHF iter   9:  -350.54108640465074   -1.19211e-08   4.94085e-08 DIIS
   @DF-RHF iter  10:  -350.54108640569996   -1.04922e-09   1.27201e-08 DIIS
   @DF-RHF iter  11:  -350.54108640575862   -5.86624e-11   3.81766e-09 DIIS
  Energy and wave function converged.


  ==> Post-Iterations <==

    Orbital Energies [Eh]
    ---------------------

    Doubly Occupied:                                                      

       1A    -20.555947     2A    -11.272166     3A    -11.221655  
       4A    -11.217198     5A    -11.205990     6A    -11.204144  
       7A    -11.202809     8A    -11.201749     9A     -1.357024  
      10A     -1.069419    11A     -1.047648    12A     -0.974414  
      13A     -0.919882    14A     -0.867104    15A     -0.793624  
      16A     -0.792632    17A     -0.679036    18A     -0.643530  
      19A     -0.630038    20A     -0.615175    21A     -0.592894  
      22A     -0.580805    23A     -0.562400    24A     -0.544675  
      25A     -0.537239    26A     -0.525229    27A     -0.505679  
      28A     -0.495913    29A     -0.475968    30A     -0.469154  
      31A     -0.467678    32A     -0.462281    33A     -0.457829  
      34A     -0.426975  

    Virtual:                                                              

      35A      0.049233    36A      0.053092    37A      0.055363  
      38A      0.060423    39A      0.070779    40A      0.073565  
      41A      0.077400    42A      0.082971    43A      0.091292  
      44A      0.108520    45A      0.109888    46A      0.112928  
      47A      0.114088    48A      0.119786    49A      0.127697  
      50A      0.133861    51A      0.143991    52A      0.150778  
      53A      0.152349    54A      0.153735    55A      0.160598  
      56A      0.169468    57A      0.182929    58A      0.191775  
      59A      0.200989    60A      0.203961    61A      0.211834  
      62A      0.217407    63A      0.229590    64A      0.231923  
      65A      0.258493    66A      0.258843    67A      0.265622  
      68A      0.268118    69A      0.277379    70A      0.284438  
      71A      0.290506    72A      0.294907    73A      0.298931  
      74A      0.306223    75A      0.314405    76A      0.319031  
      77A      0.325956    78A      0.331121    79A      0.333770  
      80A      0.339436    81A      0.340114    82A      0.351620  
      83A      0.354667    84A      0.358822    85A      0.365236  
      86A      0.367630    87A      0.369508    88A      0.372482  
      89A      0.379327    90A      0.387394    91A      0.392689  
      92A      0.397140    93A      0.404541    94A      0.414788  
      95A      0.420323    96A      0.421898    97A      0.431228  
      98A      0.439807    99A      0.445403   100A      0.453549  
     101A      0.460843   102A      0.471522   103A      0.480647  
     104A      0.488487   105A      0.490842   106A      0.502951  
     107A      0.511695   108A      0.516300   109A      0.524672  
     110A      0.535551   111A      0.538037   112A      0.542399  
     113A      0.543693   114A      0.555790   115A      0.562575  
     116A      0.567986   117A      0.573274   118A      0.584765  
     119A      0.593770   120A      0.601470   121A      0.611774  
     122A      0.616624   123A      0.627328   124A      0.636970  
     125A      0.646187   126A      0.657219   127A      0.664480  
     128A      0.673182   129A      0.681624   130A      0.693185  
     131A      0.704358   132A      0.713684   133A      0.719486  
     134A      0.731465   135A      0.740225   136A      0.751441  
     137A      0.753674   138A      0.769561   139A      0.774263  
     140A      0.782456   141A      0.784393   142A      0.788546  
     143A      0.800495   144A      0.805456   145A      0.812202  
     146A      0.824191   147A      0.833302   148A      0.835066  
     149A      0.847711   150A      0.854059   151A      0.860896  
     152A      0.864474   153A      0.868958   154A      0.873862  
     155A      0.883174   156A      0.890525   157A      0.899153  
     158A      0.903978   159A      0.918313   160A      0.924607  
     161A      0.933281   162A      0.942474   163A      0.955914  
     164A      0.966448   165A      0.971166   166A      0.983389  
     167A      0.987971   168A      1.003175   169A      1.009077  
     170A      1.020650   171A      1.030490   172A      1.042187  
     173A      1.054068   174A      1.062987   175A      1.072825  
     176A      1.094625   177A      1.103090   178A      1.124506  
     179A      1.133657   180A      1.149817   181A      1.166308  
     182A      1.179351   183A      1.187131   184A      1.194043  
     185A      1.209938   186A      1.218567   187A      1.233027  
     188A      1.243361   189A      1.249414   190A      1.264078  
     191A      1.273183   192A      1.292368   193A      1.313694  
     194A      1.325546   195A      1.347867   196A      1.353325  
     197A      1.357060   198A      1.361644   199A      1.364962  
     200A      1.375053   201A      1.398985   202A      1.408169  
     203A      1.409998   204A      1.426912   205A      1.428261  
     206A      1.435458   207A      1.440787   208A      1.447823  
     209A      1.460376   210A      1.471588   211A      1.485349  
     212A      1.497562   213A      1.504004   214A      1.515781  
     215A      1.519870   216A      1.520695   217A      1.538756  
     218A      1.546865   219A      1.561008   220A      1.569169  
     221A      1.575869   222A      1.578410   223A      1.586873  
     224A      1.592420   225A      1.600341   226A      1.603114  
     227A      1.614133   228A      1.630326   229A      1.631457  
     230A      1.635591   231A      1.653367   232A      1.655991  
     233A      1.672602   234A      1.683000   235A      1.690629  
     236A      1.693990   237A      1.699575   238A      1.714884  
     239A      1.725374   240A      1.736249   241A      1.742175  
     242A      1.751189   243A      1.762487   244A      1.776003  
     245A      1.791555   246A      1.798740   247A      1.812349  
     248A      1.816247   249A      1.844785   250A      1.863455  
     251A      1.869114   252A      1.885492   253A      1.889874  
     254A      1.904712   255A      1.916361   256A      1.933519  
     257A      1.936419   258A      1.955626   259A      1.963211  
     260A      1.980523   261A      1.994396   262A      2.003114  
     263A      2.027570   264A      2.033014   265A      2.043906  
     266A      2.098312   267A      2.136305   268A      2.144121  
     269A      2.279600   270A      2.375631   271A      2.466328  
     272A      2.487015   273A      2.579554   274A      2.599575  
     275A      2.760140   276A      2.768755   277A      2.786918  
     278A      2.804224   279A      2.814764   280A      2.817347  
     281A      2.828788   282A      2.835000   283A      2.849757  
     284A      2.868292   285A      2.900959   286A      2.906824  
     287A      2.918150   288A      2.931794   289A      2.938826  
     290A      2.954139   291A      2.969852   292A      2.983170  
     293A      2.998382   294A      3.005137   295A      3.020443  
     296A      3.025131   297A      3.040041   298A      3.065773  
     299A      3.075801   300A      3.079441   301A      3.099015  
     302A      3.103874   303A      3.109624   304A      3.116564  
     305A      3.140558   306A      3.153979   307A      3.170024  
     308A      3.185505   309A      3.192979   310A      3.205092  
     311A      3.216028   312A      3.231310   313A      3.236127  
     314A      3.261321   315A      3.275593   316A      3.280491  
     317A      3.285213   318A      3.298224   319A      3.313533  
     320A      3.321840   321A      3.329641   322A      3.342809  
     323A      3.351055   324A      3.362536   325A      3.380260  
     326A      3.381908   327A      3.385727   328A      3.408305  
     329A      3.410749   330A      3.426061   331A      3.435279  
     332A      3.437731   333A      3.450307   334A      3.454467  
     335A      3.461536   336A      3.476200   337A      3.478672  
     338A      3.487672   339A      3.493292   340A      3.503052  
     341A      3.507388   342A      3.517835   343A      3.523240  
     344A      3.533956   345A      3.536362   346A      3.547590  
     347A      3.554305   348A      3.558925   349A      3.567550  
     350A      3.572959   351A      3.579556   352A      3.591205  
     353A      3.599844   354A      3.609275   355A      3.616198  
     356A      3.633444   357A      3.653660   358A      3.657287  
     359A      3.672436   360A      3.688183   361A      3.716361  
     362A      3.719270   363A      3.728110   364A      3.741359  
     365A      3.747617   366A      3.765600   367A      3.782720  
     368A      3.790744   369A      3.798966   370A      3.803825  
     371A      3.812045   372A      3.823535   373A      3.835392  
     374A      3.837001   375A      3.863838   376A      3.869126  
     377A      3.873836   378A      3.883502   379A      3.902843  
     380A      3.915172   381A      3.932572   382A      3.938999  
     383A      3.946361   384A      3.959291   385A      3.964180  
     386A      3.971571   387A      3.983971   388A      3.992749  
     389A      3.995187   390A      4.021427   391A      4.033012  
     392A      4.035313   393A      4.083036   394A      4.106338  
     395A      4.122338   396A      4.124000   397A      4.134098  
     398A      4.158304   399A      4.183844   400A      4.196134  
     401A      4.204808   402A      4.211538   403A      4.231592  
     404A      4.243805   405A      4.245383   406A      4.256232  
     407A      4.270726   408A      4.274355   409A      4.295062  
     410A      4.301568   411A      4.311939   412A      4.314701  
     413A      4.331230   414A      4.340605   415A      4.343803  
     416A      4.368466   417A      4.374148   418A      4.376343  
     419A      4.384867   420A      4.391423   421A      4.394413  
     422A      4.397913   423A      4.422697   424A      4.433137  
     425A      4.439755   426A      4.446997   427A      4.464301  
     428A      4.471171   429A      4.481258   430A      4.495094  
     431A      4.508000   432A      4.513416   433A      4.522114  
     434A      4.527910   435A      4.528909   436A      4.545428  
     437A      4.551126   438A      4.557049   439A      4.566635  
     440A      4.570783   441A      4.575057   442A      4.586673  
     443A      4.591484   444A      4.603478   445A      4.624733  
     446A      4.629346   447A      4.648262   448A      4.661279  
     449A      4.676316   450A      4.696019   451A      4.705717  
     452A      4.720479   453A      4.733503   454A      4.742320  
     455A      4.751425   456A      4.782010   457A      4.798761  
     458A      4.811437   459A      4.824605   460A      4.839232  
     461A      4.850131   462A      4.857970   463A      4.872390  
     464A      4.899311   465A      4.914188   466A      4.920757  
     467A      4.927097   468A      4.964110   469A      5.006875  
     470A      5.012265   471A      5.037934   472A      5.058041  
     473A      5.071264   474A      5.084799   475A      5.094099  
     476A      5.140770   477A      5.151802   478A      5.166024  
     479A      5.186180   480A      5.205028   481A      5.213308  
     482A      5.217482   483A      5.258535   484A      5.272568  
     485A      5.283555   486A      5.289077   487A      5.292171  
     488A      5.309785   489A      5.320821   490A      5.332500  
     491A      5.335086   492A      5.350803   493A      5.373950  
     494A      5.394353   495A      5.403259   496A      5.435477  
     497A      5.440784   498A      5.470342   499A      5.476677  
     500A      5.495141   501A      5.514403   502A      5.520306  
     503A      5.552243   504A      5.591090   505A      5.596905  
     506A      5.605086   507A      5.612246   508A      5.652871  
     509A      5.659204   510A      5.730742   511A      5.758233  
     512A      5.767899   513A      5.781137   514A      5.783766  
     515A      5.785783   516A      5.799009   517A      5.802246  
     518A      5.819554   519A      5.827702   520A      5.834167  
     521A      5.854232   522A      5.862551   523A      5.869992  
     524A      5.919807   525A      5.937345   526A      5.943941  
     527A      5.947956   528A      5.960251   529A      5.977879  
     530A      6.034020   531A      6.043648   532A      6.068151  
     533A      6.107657   534A      6.132655   535A      6.213936  
     536A      6.317829   537A      6.444981   538A      6.472536  
     539A      6.516501   540A      6.524724   541A      6.545869  
     542A      6.562099   543A      6.579224   544A      6.586485  
     545A      6.612773   546A      6.629449   547A      6.686772  
     548A      6.949139   549A      7.083478   550A      7.249339  
     551A      7.317060   552A      7.424157   553A      7.527753  
     554A      7.665847   555A      7.868102   556A      8.179029  
     557A     13.655481   558A     13.857983   559A     13.952157  
     560A     14.096578   561A     14.311391   562A     14.578904  
     563A     14.763783   564A     14.813414  

    Final Occupation by Irrep:
              A 
    DOCC [    34 ]

  @DF-RHF Final Energy:  -350.54108640575862

   => Energetics <=

    Nuclear Repulsion Energy =            410.1909509379179326
    One-Electron Energy =               -1288.3122645086637021
    Two-Electron Energy =                 527.5802271649871500
    Total Energy =                       -350.5410864057586195

Computation Completed


Properties will be evaluated at   0.000000,   0.000000,   0.000000 [a0]

Properties computed using the SCF density matrix

  Nuclear Dipole Moment: [e a0]
     X:    -4.0205      Y:     3.0218      Z:    -2.4856

  Electronic Dipole Moment: [e a0]
     X:     4.6673      Y:    -2.9939      Z:     2.2229

  Dipole Moment: [e a0]
     X:     0.6467      Y:     0.0279      Z:    -0.2626     Total:     0.6986

  Dipole Moment: [D]
     X:     1.6438      Y:     0.0710      Z:    -0.6676     Total:     1.7756


*** tstop() called on r282 at Fri Sep 10 22:32:44 2021
Module time:
	user time   =      93.93 seconds =       1.57 minutes
	system time =       1.96 seconds =       0.03 minutes
	total time  =         96 seconds =       1.60 minutes
Total time:
	user time   =      93.93 seconds =       1.57 minutes
	system time =       1.96 seconds =       0.03 minutes
	total time  =         96 seconds =       1.60 minutes

  //>>>>>>>>>>>>>>>>>>>>>>>>>>>>>>>>>>>//
  //            Monomer A HF           //
  //<<<<<<<<<<<<<<<<<<<<<<<<<<<<<<<<<<<//


*** tstart() called on r282
*** at Fri Sep 10 22:32:44 2021

   => Loading Basis Set <=

    Name: JUN-CC-PVTZ
    Role: ORBITAL
    Keyword: BASIS
    atoms 1-2, 9, 12, 16-18             entry C          line   217 file /home/r08543048/miniconda3/share/psi4/basis/jun-cc-pvtz.gbs 
    atoms 3-4, 6-8, 10-11, 13-15, 19-26 entry H          line    36 file /home/r08543048/miniconda3/share/psi4/basis/jun-cc-pvtz.gbs 
    atoms 5                             entry O          line   305 file /home/r08543048/miniconda3/share/psi4/basis/jun-cc-pvtz.gbs 


         ---------------------------------------------------------
                                   SCF
               by Justin Turney, Rob Parrish, Andy Simmonett
                          and Daniel G. A. Smith
                              RHF Reference
                        1 Threads,  20980 MiB Core
         ---------------------------------------------------------

  ==> Geometry <==

    Molecular point group: c1
    Full point group: C1

    Geometry (in Angstrom), charge = 0, multiplicity = 1:

       Center              X                  Y                   Z               Mass       
    ------------   -----------------  -----------------  -----------------  -----------------
         C            2.131401043977    -0.091327981643    -0.787779878223    12.000000000000
         C            1.533716043977    -1.314432981643    -0.110976878223    12.000000000000
         H            3.063408043977     0.183739018357    -0.281093878223     1.007825032230
         H            2.412681043977    -0.397284981643    -1.799852878223     1.007825032230
         O            1.256620043977    -1.137949981643     1.279341121777    15.994914619570
         H            0.571315043977    -1.554649981643    -0.564210878223     1.007825032230
         H            2.192706043977    -2.176128981643    -0.256342878223     1.007825032230
         H            2.092759043977    -0.957067981643     1.722043121777     1.007825032230
         C            1.207898043977     1.124111018357    -0.869580878223    12.000000000000
         H            1.610328043977     1.812759018357    -1.616039878223     1.007825032230
         H            0.233380043977     0.799684018357    -1.245895878223     1.007825032230
         C            1.029101043977     1.875984018357     0.446038121777    12.000000000000
         H            1.997730043977     2.196364018357     0.834901121777     1.007825032230
         H            0.418725043977     2.767719018357     0.302519121777     1.007825032230
         H            0.554337043977     1.251449018357     1.198770121777     1.007825032230
      Gh(C)          -2.610118956023     1.124772018357     0.249937121777    12.000000000000
      Gh(C)          -2.226735956023    -0.337641981643     0.439798121777    12.000000000000
      Gh(C)          -2.379490956023    -1.135888981643    -0.849453878223    12.000000000000
      Gh(H)          -1.984172956023     1.593963018357    -0.510990878223     1.007825032230
      Gh(H)          -3.648073956023     1.214485018357    -0.074757878223     1.007825032230
      Gh(H)          -2.495317956023     1.693642018357     1.172426121777     1.007825032230
      Gh(H)          -2.853671956023    -0.780824981643     1.216403121777     1.007825032230
      Gh(H)          -1.198536956023    -0.408655981643     0.799773121777     1.007825032230
      Gh(H)          -2.098358956023    -2.180280981643    -0.712373878223     1.007825032230
      Gh(H)          -3.411662956023    -1.110049981643    -1.202540878223     1.007825032230
      Gh(H)          -1.752737956023    -0.719617981643    -1.640671878223     1.007825032230

  Running in c1 symmetry.

  Rotational constants: A =      0.06736  B =      0.03302  C =      0.02791 [cm^-1]
  Rotational constants: A =   2019.32651  B =    990.04165  C =    836.72997 [MHz]
  Nuclear repulsion =  192.090942156219114

  Charge       = 0
  Multiplicity = 1
  Electrons    = 42
  Nalpha       = 21
  Nbeta        = 21

  ==> Algorithm <==

  SCF Algorithm Type is DF.
  DIIS enabled.
  MOM disabled.
  Fractional occupation disabled.
  Guess Type is SAD.
  Energy threshold   = 1.00e-08
  Density threshold  = 1.00e-08
  Integral threshold = 0.00e+00

  ==> Primary Basis <==

  Basis Set: JUN-CC-PVTZ
    Blend: JUN-CC-PVTZ
    Number of shells: 212
    Number of basis function: 564
    Number of Cartesian functions: 630
    Spherical Harmonics?: true
    Max angular momentum: 3

   => Loading Basis Set <=

    Name: (JUN-CC-PVTZ AUX)
    Role: JKFIT
    Keyword: DF_BASIS_SCF
    atoms 1-2, 9, 12, 16-18             entry C          line   152 file /home/r08543048/miniconda3/share/psi4/basis/jun-cc-pvtz-jkfit.gbs 
    atoms 3-4, 6-8, 10-11, 13-15, 19-26 entry H          line    70 file /home/r08543048/miniconda3/share/psi4/basis/jun-cc-pvtz-jkfit.gbs 
    atoms 5                             entry O          line   272 file /home/r08543048/miniconda3/share/psi4/basis/jun-cc-pvtz-jkfit.gbs 

  ==> Pre-Iterations <==

   -------------------------------------------------------
    Irrep   Nso     Nmo     Nalpha   Nbeta   Ndocc  Nsocc
   -------------------------------------------------------
     A        564     564       0       0       0       0
   -------------------------------------------------------
    Total     564     564      21      21      21       0
   -------------------------------------------------------

  ==> Integral Setup <==

  ==> DiskDFJK: Density-Fitted J/K Matrices <==

    J tasked:                  Yes
    K tasked:                  Yes
    wK tasked:                  No
    OpenMP threads:              1
    Integrals threads:           1
    Memory [MiB]:            15735
    Algorithm:                Core
    Integral Cache:           LOAD
    Schwarz Cutoff:          1E-12
    Fitting Condition:       1E-10

   => Auxiliary Basis Set <=

  Basis Set: (JUN-CC-PVTZ AUX)
    Blend: JUN-CC-PVTZ-JKFIT
    Number of shells: 412
    Number of basis function: 1300
    Number of Cartesian functions: 1558
    Spherical Harmonics?: true
    Max angular momentum: 4

  Minimum eigenvalue in the overlap matrix is 3.8840157252E-05.
  Using Symmetric Orthogonalization.

  SCF Guess: Superposition of Atomic Densities via on-the-fly atomic UHF.

  ==> Iterations <==

                           Total Energy        Delta E     RMS |[F,P]|

   @DF-RHF iter SAD:  -231.56060753647262   -2.31561e+02   0.00000e+00 
   @DF-RHF iter   1:  -232.00856488736935   -4.47957e-01   1.12157e-03 DIIS
   @DF-RHF iter   2:  -232.18544960284950   -1.76885e-01   5.93527e-04 DIIS
   @DF-RHF iter   3:  -232.23333349910797   -4.78839e-02   1.01922e-04 DIIS
   @DF-RHF iter   4:  -232.23606164035868   -2.72814e-03   3.44783e-05 DIIS
   @DF-RHF iter   5:  -232.23627875249721   -2.17112e-04   8.75162e-06 DIIS
   @DF-RHF iter   6:  -232.23629612020733   -1.73677e-05   1.98529e-06 DIIS
   @DF-RHF iter   7:  -232.23629740203666   -1.28183e-06   4.81665e-07 DIIS
   @DF-RHF iter   8:  -232.23629748090536   -7.88687e-08   1.52883e-07 DIIS
   @DF-RHF iter   9:  -232.23629748920979   -8.30443e-09   4.23773e-08 DIIS
   @DF-RHF iter  10:  -232.23629748995035   -7.40556e-10   9.92706e-09 DIIS
  Energy and wave function converged.


  ==> Post-Iterations <==

    Orbital Energies [Eh]
    ---------------------

    Doubly Occupied:                                                      

       1A    -20.554281     2A    -11.271875     3A    -11.221129  
       4A    -11.216956     5A    -11.202384     6A     -1.355055  
       7A     -1.068516     8A     -0.973537     9A     -0.866193  
      10A     -0.791559    11A     -0.676816    12A     -0.639173  
      13A     -0.627878    14A     -0.579653    15A     -0.561365  
      16A     -0.536367    17A     -0.503656    18A     -0.494978  
      19A     -0.473919    20A     -0.460584    21A     -0.425821  

    Virtual:                                                              

      22A      0.036326    23A      0.048377    24A      0.051396  
      25A      0.056612    26A      0.066801    27A      0.070294  
      28A      0.074672    29A      0.081511    30A      0.088991  
      31A      0.104161    32A      0.104716    33A      0.108489  
      34A      0.111674    35A      0.117409    36A      0.121445  
      37A      0.126570    38A      0.134615    39A      0.139830  
      40A      0.150038    41A      0.153675    42A      0.156104  
      43A      0.158744    44A      0.163048    45A      0.176754  
      46A      0.182240    47A      0.198695    48A      0.204586  
      49A      0.207066    50A      0.214560    51A      0.231749  
      52A      0.237272    53A      0.249354    54A      0.259678  
      55A      0.262583    56A      0.264909    57A      0.275935  
      58A      0.283148    59A      0.285756    60A      0.294056  
      61A      0.308140    62A      0.309580    63A      0.319645  
      64A      0.324641    65A      0.327899    66A      0.334806  
      67A      0.336754    68A      0.345157    69A      0.348273  
      70A      0.353011    71A      0.356329    72A      0.365220  
      73A      0.369958    74A      0.374684    75A      0.378757  
      76A      0.389791    77A      0.391930    78A      0.395576  
      79A      0.404336    80A      0.407397    81A      0.416431  
      82A      0.422709    83A      0.432589    84A      0.433445  
      85A      0.443493    86A      0.455637    87A      0.465764  
      88A      0.474312    89A      0.478238    90A      0.485686  
      91A      0.494106    92A      0.496599    93A      0.509708  
      94A      0.515335    95A      0.521642    96A      0.523314  
      97A      0.535068    98A      0.542705    99A      0.545769  
     100A      0.553265   101A      0.556955   102A      0.570250  
     103A      0.573793   104A      0.580464   105A      0.585028  
     106A      0.591019   107A      0.604121   108A      0.615362  
     109A      0.617061   110A      0.622624   111A      0.631390  
     112A      0.641476   113A      0.646521   114A      0.652421  
     115A      0.655668   116A      0.666963   117A      0.672702  
     118A      0.679856   119A      0.689026   120A      0.696420  
     121A      0.704531   122A      0.711680   123A      0.729491  
     124A      0.734617   125A      0.755219   126A      0.761073  
     127A      0.766454   128A      0.776652   129A      0.788982  
     130A      0.794617   131A      0.809580   132A      0.820996  
     133A      0.822547   134A      0.827842   135A      0.839254  
     136A      0.855837   137A      0.861583   138A      0.868480  
     139A      0.879070   140A      0.898606   141A      0.901401  
     142A      0.916538   143A      0.924556   144A      0.938503  
     145A      0.959980   146A      0.978689   147A      0.989868  
     148A      1.006643   149A      1.017371   150A      1.033718  
     151A      1.038700   152A      1.054694   153A      1.067331  
     154A      1.080335   155A      1.089343   156A      1.104668  
     157A      1.117391   158A      1.122091   159A      1.132965  
     160A      1.144054   161A      1.155850   162A      1.162496  
     163A      1.181951   164A      1.184434   165A      1.190995  
     166A      1.197490   167A      1.206460   168A      1.215599  
     169A      1.227435   170A      1.233270   171A      1.250277  
     172A      1.253816   173A      1.257058   174A      1.270932  
     175A      1.289056   176A      1.296485   177A      1.305107  
     178A      1.313767   179A      1.323491   180A      1.327716  
     181A      1.345530   182A      1.355048   183A      1.360542  
     184A      1.368379   185A      1.373537   186A      1.392885  
     187A      1.401012   188A      1.407887   189A      1.412163  
     190A      1.423835   191A      1.433199   192A      1.436614  
     193A      1.445077   194A      1.457610   195A      1.469671  
     196A      1.483126   197A      1.484683   198A      1.492037  
     199A      1.495915   200A      1.504729   201A      1.518059  
     202A      1.527267   203A      1.540733   204A      1.544286  
     205A      1.547230   206A      1.557315   207A      1.574638  
     208A      1.582417   209A      1.591047   210A      1.594336  
     211A      1.595795   212A      1.609169   213A      1.624908  
     214A      1.634630   215A      1.644338   216A      1.646927  
     217A      1.655786   218A      1.671591   219A      1.685795  
     220A      1.695393   221A      1.697647   222A      1.708957  
     223A      1.713476   224A      1.722165   225A      1.732305  
     226A      1.735269   227A      1.749455   228A      1.751121  
     229A      1.771176   230A      1.777378   231A      1.789651  
     232A      1.805452   233A      1.814786   234A      1.828243  
     235A      1.854637   236A      1.863862   237A      1.894210  
     238A      1.906140   239A      1.917049   240A      1.921565  
     241A      1.925729   242A      1.948163   243A      1.972791  
     244A      1.993585   245A      1.998119   246A      2.013044  
     247A      2.034164   248A      2.046717   249A      2.052689  
     250A      2.083255   251A      2.101010   252A      2.130752  
     253A      2.161779   254A      2.196154   255A      2.199211  
     256A      2.208703   257A      2.283857   258A      2.344932  
     259A      2.367190   260A      2.412782   261A      2.422100  
     262A      2.440723   263A      2.465622   264A      2.478729  
     265A      2.492868   266A      2.506918   267A      2.591271  
     268A      2.607000   269A      2.609380   270A      2.621032  
     271A      2.669831   272A      2.797599   273A      2.823250  
     274A      2.848146   275A      2.854684   276A      2.891407  
     277A      2.899867   278A      2.931729   279A      2.957360  
     280A      2.976028   281A      3.003199   282A      3.013124  
     283A      3.046488   284A      3.073142   285A      3.082404  
     286A      3.104583   287A      3.110665   288A      3.140180  
     289A      3.175470   290A      3.194100   291A      3.212447  
     292A      3.240513   293A      3.265173   294A      3.276232  
     295A      3.283159   296A      3.322495   297A      3.336327  
     298A      3.354768   299A      3.384076   300A      3.405483  
     301A      3.425522   302A      3.435822   303A      3.443080  
     304A      3.450765   305A      3.465984   306A      3.476376  
     307A      3.490630   308A      3.494220   309A      3.506683  
     310A      3.511261   311A      3.518087   312A      3.529748  
     313A      3.539604   314A      3.555434   315A      3.557320  
     316A      3.571875   317A      3.581755   318A      3.582837  
     319A      3.590887   320A      3.599151   321A      3.609176  
     322A      3.616012   323A      3.631212   324A      3.634870  
     325A      3.654187   326A      3.656311   327A      3.664854  
     328A      3.675134   329A      3.699596   330A      3.715079  
     331A      3.732215   332A      3.739228   333A      3.748889  
     334A      3.773083   335A      3.775605   336A      3.781220  
     337A      3.795154   338A      3.799033   339A      3.814178  
     340A      3.818868   341A      3.837436   342A      3.849746  
     343A      3.860925   344A      3.871356   345A      3.876605  
     346A      3.883609   347A      3.903595   348A      3.909713  
     349A      3.927098   350A      3.934014   351A      3.945182  
     352A      3.956336   353A      3.960361   354A      3.973350  
     355A      3.979804   356A      3.992704   357A      4.000484  
     358A      4.010573   359A      4.031158   360A      4.051175  
     361A      4.075226   362A      4.085655   363A      4.113494  
     364A      4.132017   365A      4.135481   366A      4.152209  
     367A      4.160559   368A      4.179893   369A      4.182470  
     370A      4.207177   371A      4.210744   372A      4.215049  
     373A      4.223388   374A      4.237980   375A      4.253714  
     376A      4.266252   377A      4.285888   378A      4.290903  
     379A      4.309465   380A      4.322406   381A      4.331199  
     382A      4.349090   383A      4.362260   384A      4.380477  
     385A      4.382832   386A      4.389634   387A      4.395355  
     388A      4.400940   389A      4.405430   390A      4.429661  
     391A      4.441007   392A      4.451970   393A      4.455728  
     394A      4.466221   395A      4.472443   396A      4.480263  
     397A      4.487405   398A      4.516614   399A      4.519513  
     400A      4.529578   401A      4.540529   402A      4.546067  
     403A      4.547583   404A      4.560811   405A      4.570887  
     406A      4.572762   407A      4.588717   408A      4.596442  
     409A      4.609663   410A      4.620329   411A      4.628647  
     412A      4.637676   413A      4.641733   414A      4.650218  
     415A      4.669688   416A      4.683554   417A      4.690749  
     418A      4.704130   419A      4.723371   420A      4.726871  
     421A      4.737715   422A      4.740040   423A      4.750720  
     424A      4.766025   425A      4.783625   426A      4.793744  
     427A      4.817514   428A      4.820170   429A      4.823888  
     430A      4.830371   431A      4.838559   432A      4.851126  
     433A      4.853410   434A      4.868501   435A      4.872700  
     436A      4.891061   437A      4.896716   438A      4.905804  
     439A      4.916834   440A      4.929205   441A      4.932824  
     442A      4.945818   443A      4.961576   444A      4.966390  
     445A      4.977693   446A      4.985089   447A      4.993904  
     448A      5.021332   449A      5.034001   450A      5.040150  
     451A      5.046297   452A      5.063117   453A      5.075384  
     454A      5.093504   455A      5.104491   456A      5.124485  
     457A      5.140073   458A      5.155430   459A      5.161547  
     460A      5.176240   461A      5.180738   462A      5.204919  
     463A      5.212712   464A      5.242926   465A      5.251240  
     466A      5.278939   467A      5.291873   468A      5.306399  
     469A      5.317854   470A      5.325545   471A      5.339425  
     472A      5.375533   473A      5.395328   474A      5.402229  
     475A      5.418645   476A      5.448515   477A      5.452100  
     478A      5.479673   479A      5.503393   480A      5.515051  
     481A      5.555922   482A      5.588579   483A      5.604657  
     484A      5.622327   485A      5.630606   486A      5.632749  
     487A      5.642815   488A      5.653822   489A      5.660033  
     490A      5.672006   491A      5.781934   492A      5.788358  
     493A      5.803019   494A      5.827387   495A      5.836832  
     496A      5.855005   497A      5.862466   498A      5.872766  
     499A      5.909234   500A      5.934929   501A      5.941894  
     502A      5.967489   503A      5.981673   504A      6.018513  
     505A      6.038358   506A      6.065595   507A      6.080064  
     508A      6.116320   509A      6.199892   510A      6.215253  
     511A      6.224130   512A      6.264027   513A      6.317717  
     514A      6.354867   515A      6.367424   516A      6.395723  
     517A      6.430458   518A      6.447302   519A      6.453916  
     520A      6.511537   521A      6.524403   522A      6.534248  
     523A      6.563015   524A      6.585777   525A      6.610110  
     526A      6.623255   527A      6.658488   528A      6.766673  
     529A      6.906525   530A      6.950256   531A      7.026588  
     532A      7.090963   533A      7.251442   534A      7.308896  
     535A      7.320912   536A      7.423797   537A      7.498366  
     538A      7.529107   539A      7.578542   540A      7.600978  
     541A      7.648349   542A      7.665738   543A      7.700507  
     544A      7.715195   545A      7.824022   546A      7.830439  
     547A      7.867213   548A      7.877871   549A      7.915618  
     550A      8.064425   551A      8.181559   552A      8.260885  
     553A      8.524057   554A      9.617568   555A      9.938929  
     556A      9.958481   557A     13.661670   558A     13.882364  
     559A     14.047306   560A     14.271597   561A     14.795508  
     562A     44.772124   563A     45.481425   564A     45.901039  

    Final Occupation by Irrep:
              A 
    DOCC [    21 ]

  @DF-RHF Final Energy:  -232.23629748995035

   => Energetics <=

    Nuclear Repulsion Energy =            192.0909421562191142
    One-Electron Energy =                -695.6510831989646704
    Two-Electron Energy =                 271.3238435527952106
    Total Energy =                       -232.2362974899503456

Computation Completed


Properties will be evaluated at   0.000000,   0.000000,   0.000000 [a0]

Properties computed using the SCF density matrix

  Nuclear Dipole Moment: [e a0]
     X:   114.5420      Y:     8.2940      Z:     1.1258

  Electronic Dipole Moment: [e a0]
     X:  -113.9519      Y:    -8.2379      Z:    -1.4789

  Dipole Moment: [e a0]
     X:     0.5901      Y:     0.0561      Z:    -0.3531     Total:     0.6900

  Dipole Moment: [D]
     X:     1.4999      Y:     0.1425      Z:    -0.8975     Total:     1.7537


*** tstop() called on r282 at Fri Sep 10 22:33:44 2021
Module time:
	user time   =      58.26 seconds =       0.97 minutes
	system time =       0.89 seconds =       0.01 minutes
	total time  =         60 seconds =       1.00 minutes
Total time:
	user time   =     152.20 seconds =       2.54 minutes
	system time =       2.85 seconds =       0.05 minutes
	total time  =        156 seconds =       2.60 minutes

  //>>>>>>>>>>>>>>>>>>>>>>>>>>>>>>>>>>>//
  //            Monomer B HF           //
  //<<<<<<<<<<<<<<<<<<<<<<<<<<<<<<<<<<<//


*** tstart() called on r282
*** at Fri Sep 10 22:33:44 2021

   => Loading Basis Set <=

    Name: JUN-CC-PVTZ
    Role: ORBITAL
    Keyword: BASIS
    atoms 1-2, 9, 12, 16-18             entry C          line   217 file /home/r08543048/miniconda3/share/psi4/basis/jun-cc-pvtz.gbs 
    atoms 3-4, 6-8, 10-11, 13-15, 19-26 entry H          line    36 file /home/r08543048/miniconda3/share/psi4/basis/jun-cc-pvtz.gbs 
    atoms 5                             entry O          line   305 file /home/r08543048/miniconda3/share/psi4/basis/jun-cc-pvtz.gbs 


         ---------------------------------------------------------
                                   SCF
               by Justin Turney, Rob Parrish, Andy Simmonett
                          and Daniel G. A. Smith
                              RHF Reference
                        1 Threads,  20980 MiB Core
         ---------------------------------------------------------

  ==> Geometry <==

    Molecular point group: c1
    Full point group: C1

    Geometry (in Angstrom), charge = 0, multiplicity = 1:

       Center              X                  Y                   Z               Mass       
    ------------   -----------------  -----------------  -----------------  -----------------
      Gh(C)           2.131401043977    -0.091327981643    -0.787779878223    12.000000000000
      Gh(C)           1.533716043977    -1.314432981643    -0.110976878223    12.000000000000
      Gh(H)           3.063408043977     0.183739018357    -0.281093878223     1.007825032230
      Gh(H)           2.412681043977    -0.397284981643    -1.799852878223     1.007825032230
      Gh(O)           1.256620043977    -1.137949981643     1.279341121777    15.994914619570
      Gh(H)           0.571315043977    -1.554649981643    -0.564210878223     1.007825032230
      Gh(H)           2.192706043977    -2.176128981643    -0.256342878223     1.007825032230
      Gh(H)           2.092759043977    -0.957067981643     1.722043121777     1.007825032230
      Gh(C)           1.207898043977     1.124111018357    -0.869580878223    12.000000000000
      Gh(H)           1.610328043977     1.812759018357    -1.616039878223     1.007825032230
      Gh(H)           0.233380043977     0.799684018357    -1.245895878223     1.007825032230
      Gh(C)           1.029101043977     1.875984018357     0.446038121777    12.000000000000
      Gh(H)           1.997730043977     2.196364018357     0.834901121777     1.007825032230
      Gh(H)           0.418725043977     2.767719018357     0.302519121777     1.007825032230
      Gh(H)           0.554337043977     1.251449018357     1.198770121777     1.007825032230
         C           -2.610118956023     1.124772018357     0.249937121777    12.000000000000
         C           -2.226735956023    -0.337641981643     0.439798121777    12.000000000000
         C           -2.379490956023    -1.135888981643    -0.849453878223    12.000000000000
         H           -1.984172956023     1.593963018357    -0.510990878223     1.007825032230
         H           -3.648073956023     1.214485018357    -0.074757878223     1.007825032230
         H           -2.495317956023     1.693642018357     1.172426121777     1.007825032230
         H           -2.853671956023    -0.780824981643     1.216403121777     1.007825032230
         H           -1.198536956023    -0.408655981643     0.799773121777     1.007825032230
         H           -2.098358956023    -2.180280981643    -0.712373878223     1.007825032230
         H           -3.411662956023    -1.110049981643    -1.202540878223     1.007825032230
         H           -1.752737956023    -0.719617981643    -1.640671878223     1.007825032230

  Running in c1 symmetry.

  Rotational constants: A =      0.06736  B =      0.03302  C =      0.02791 [cm^-1]
  Rotational constants: A =   2019.32651  B =    990.04165  C =    836.72997 [MHz]
  Nuclear repulsion =   82.811551179295236

  Charge       = 0
  Multiplicity = 1
  Electrons    = 26
  Nalpha       = 13
  Nbeta        = 13

  ==> Algorithm <==

  SCF Algorithm Type is DF.
  DIIS enabled.
  MOM disabled.
  Fractional occupation disabled.
  Guess Type is SAD.
  Energy threshold   = 1.00e-08
  Density threshold  = 1.00e-08
  Integral threshold = 0.00e+00

  ==> Primary Basis <==

  Basis Set: JUN-CC-PVTZ
    Blend: JUN-CC-PVTZ
    Number of shells: 212
    Number of basis function: 564
    Number of Cartesian functions: 630
    Spherical Harmonics?: true
    Max angular momentum: 3

   => Loading Basis Set <=

    Name: (JUN-CC-PVTZ AUX)
    Role: JKFIT
    Keyword: DF_BASIS_SCF
    atoms 1-2, 9, 12, 16-18             entry C          line   152 file /home/r08543048/miniconda3/share/psi4/basis/jun-cc-pvtz-jkfit.gbs 
    atoms 3-4, 6-8, 10-11, 13-15, 19-26 entry H          line    70 file /home/r08543048/miniconda3/share/psi4/basis/jun-cc-pvtz-jkfit.gbs 
    atoms 5                             entry O          line   272 file /home/r08543048/miniconda3/share/psi4/basis/jun-cc-pvtz-jkfit.gbs 

  ==> Pre-Iterations <==

   -------------------------------------------------------
    Irrep   Nso     Nmo     Nalpha   Nbeta   Ndocc  Nsocc
   -------------------------------------------------------
     A        564     564       0       0       0       0
   -------------------------------------------------------
    Total     564     564      13      13      13       0
   -------------------------------------------------------

  ==> Integral Setup <==

  ==> DiskDFJK: Density-Fitted J/K Matrices <==

    J tasked:                  Yes
    K tasked:                  Yes
    wK tasked:                  No
    OpenMP threads:              1
    Integrals threads:           1
    Memory [MiB]:            15735
    Algorithm:                Core
    Integral Cache:           LOAD
    Schwarz Cutoff:          1E-12
    Fitting Condition:       1E-10

   => Auxiliary Basis Set <=

  Basis Set: (JUN-CC-PVTZ AUX)
    Blend: JUN-CC-PVTZ-JKFIT
    Number of shells: 412
    Number of basis function: 1300
    Number of Cartesian functions: 1558
    Spherical Harmonics?: true
    Max angular momentum: 4

  Minimum eigenvalue in the overlap matrix is 3.8840157252E-05.
  Using Symmetric Orthogonalization.

  SCF Guess: Superposition of Atomic Densities via on-the-fly atomic UHF.

  ==> Iterations <==

                           Total Energy        Delta E     RMS |[F,P]|

   @DF-RHF iter SAD:  -117.72444815494987   -1.17724e+02   0.00000e+00 
   @DF-RHF iter   1:  -118.14640633550962   -4.21958e-01   9.13593e-04 DIIS
   @DF-RHF iter   2:  -118.27571781230833   -1.29311e-01   4.32517e-04 DIIS
   @DF-RHF iter   3:  -118.30616463845041   -3.04468e-02   7.26280e-05 DIIS
   @DF-RHF iter   4:  -118.30801693944468   -1.85230e-03   1.42871e-05 DIIS
   @DF-RHF iter   5:  -118.30807506525069   -5.81258e-05   4.02236e-06 DIIS
   @DF-RHF iter   6:  -118.30807966315365   -4.59790e-06   7.23621e-07 DIIS
   @DF-RHF iter   7:  -118.30807983408944   -1.70936e-07   1.36175e-07 DIIS
   @DF-RHF iter   8:  -118.30807984155030   -7.46086e-09   2.37786e-08 DIIS
   @DF-RHF iter   9:  -118.30807984178195   -2.31651e-10   4.67423e-09 DIIS
  Energy and wave function converged.


  ==> Post-Iterations <==

    Orbital Energies [Eh]
    ---------------------

    Doubly Occupied:                                                      

       1A    -11.215691     2A    -11.207976     3A    -11.207913  
       4A     -1.053942     5A     -0.924585     6A     -0.800075  
       7A     -0.624346     8A     -0.598235     9A     -0.549497  
      10A     -0.529786    11A     -0.476302    12A     -0.474462  
      13A     -0.467852  

    Virtual:                                                              

      14A      0.030890    15A      0.045488    16A      0.050175  
      17A      0.054407    18A      0.067409    19A      0.070395  
      20A      0.072080    21A      0.082642    22A      0.086078  
      23A      0.100875    24A      0.106619    25A      0.108550  
      26A      0.111326    27A      0.113323    28A      0.118954  
      29A      0.123761    30A      0.132360    31A      0.140729  
      32A      0.143156    33A      0.150732    34A      0.152432  
      35A      0.156530    36A      0.162778    37A      0.168789  
      38A      0.172634    39A      0.184228    40A      0.194061  
      41A      0.203865    42A      0.205599    43A      0.218642  
      44A      0.225901    45A      0.235903    46A      0.253940  
      47A      0.267199    48A      0.271784    49A      0.276871  
      50A      0.279809    51A      0.283963    52A      0.289474  
      53A      0.303935    54A      0.305131    55A      0.320441  
      56A      0.321009    57A      0.325138    58A      0.332037  
      59A      0.340704    60A      0.343561    61A      0.343984  
      62A      0.349978    63A      0.353168    64A      0.364851  
      65A      0.370832    66A      0.375411    67A      0.378290  
      68A      0.384351    69A      0.387900    70A      0.395232  
      71A      0.397970    72A      0.407342    73A      0.413919  
      74A      0.420915    75A      0.426036    76A      0.431415  
      77A      0.440250    78A      0.449112    79A      0.458167  
      80A      0.462175    81A      0.468164    82A      0.478995  
      83A      0.480374    84A      0.493966    85A      0.504666  
      86A      0.513128    87A      0.517615    88A      0.531108  
      89A      0.532254    90A      0.543820    91A      0.551108  
      92A      0.556435    93A      0.565526    94A      0.569774  
      95A      0.572385    96A      0.580566    97A      0.588540  
      98A      0.596562    99A      0.605558   100A      0.607735  
     101A      0.622742   102A      0.626478   103A      0.640536  
     104A      0.642047   105A      0.648821   106A      0.664917  
     107A      0.668256   108A      0.679299   109A      0.684346  
     110A      0.685384   111A      0.695353   112A      0.700629  
     113A      0.709880   114A      0.723745   115A      0.738911  
     116A      0.760076   117A      0.765352   118A      0.773228  
     119A      0.787949   120A      0.790005   121A      0.796049  
     122A      0.800705   123A      0.811787   124A      0.826099  
     125A      0.830825   126A      0.832429   127A      0.837665  
     128A      0.851423   129A      0.872847   130A      0.879027  
     131A      0.882014   132A      0.896530   133A      0.912813  
     134A      0.928622   135A      0.933290   136A      0.954703  
     137A      0.962238   138A      0.974893   139A      0.985542  
     140A      0.989937   141A      1.001661   142A      1.011171  
     143A      1.025496   144A      1.038551   145A      1.062462  
     146A      1.074567   147A      1.079145   148A      1.090741  
     149A      1.110669   150A      1.118893   151A      1.134169  
     152A      1.148179   153A      1.155563   154A      1.181727  
     155A      1.189084   156A      1.204674   157A      1.206572  
     158A      1.214791   159A      1.222633   160A      1.233899  
     161A      1.244604   162A      1.252072   163A      1.267414  
     164A      1.268822   165A      1.280635   166A      1.284314  
     167A      1.287172   168A      1.313611   169A      1.324140  
     170A      1.330275   171A      1.339692   172A      1.340379  
     173A      1.348518   174A      1.360289   175A      1.365691  
     176A      1.379689   177A      1.387988   178A      1.398140  
     179A      1.404480   180A      1.413025   181A      1.421693  
     182A      1.430375   183A      1.438443   184A      1.443806  
     185A      1.451452   186A      1.459464   187A      1.466097  
     188A      1.475175   189A      1.484856   190A      1.487170  
     191A      1.511951   192A      1.514667   193A      1.529957  
     194A      1.546499   195A      1.548864   196A      1.558427  
     197A      1.561923   198A      1.568772   199A      1.585840  
     200A      1.588451   201A      1.599868   202A      1.600905  
     203A      1.609034   204A      1.616981   205A      1.624908  
     206A      1.635401   207A      1.644741   208A      1.650061  
     209A      1.660808   210A      1.673648   211A      1.684968  
     212A      1.692413   213A      1.715830   214A      1.719152  
     215A      1.721363   216A      1.734287   217A      1.742978  
     218A      1.774605   219A      1.776022   220A      1.796564  
     221A      1.798111   222A      1.821122   223A      1.824502  
     224A      1.838999   225A      1.852617   226A      1.859539  
     227A      1.870289   228A      1.886942   229A      1.893345  
     230A      1.913171   231A      1.943457   232A      1.950223  
     233A      1.965065   234A      1.970982   235A      1.975618  
     236A      1.984529   237A      2.011216   238A      2.017744  
     239A      2.043250   240A      2.068431   241A      2.079347  
     242A      2.114232   243A      2.128933   244A      2.180190  
     245A      2.197186   246A      2.225596   247A      2.231213  
     248A      2.288306   249A      2.292750   250A      2.362242  
     251A      2.411447   252A      2.418810   253A      2.452974  
     254A      2.497909   255A      2.523577   256A      2.544836  
     257A      2.579349   258A      2.592310   259A      2.595804  
     260A      2.662347   261A      2.729947   262A      2.744376  
     263A      2.772417   264A      2.774465   265A      2.821399  
     266A      2.835307   267A      2.858051   268A      2.870646  
     269A      2.892809   270A      2.913638   271A      2.940169  
     272A      2.966456   273A      2.973058   274A      2.994346  
     275A      3.023213   276A      3.041460   277A      3.054224  
     278A      3.067472   279A      3.082354   280A      3.108007  
     281A      3.119778   282A      3.143548   283A      3.169131  
     284A      3.179726   285A      3.227246   286A      3.265845  
     287A      3.297695   288A      3.308849   289A      3.326725  
     290A      3.330948   291A      3.334191   292A      3.375152  
     293A      3.388534   294A      3.394485   295A      3.427732  
     296A      3.437024   297A      3.466257   298A      3.479199  
     299A      3.490700   300A      3.497862   301A      3.505488  
     302A      3.509904   303A      3.518596   304A      3.532803  
     305A      3.540539   306A      3.546910   307A      3.571468  
     308A      3.596766   309A      3.604827   310A      3.610727  
     311A      3.612874   312A      3.632898   313A      3.650089  
     314A      3.654715   315A      3.660237   316A      3.680396  
     317A      3.694410   318A      3.711467   319A      3.719903  
     320A      3.727336   321A      3.739401   322A      3.752709  
     323A      3.768389   324A      3.778131   325A      3.794965  
     326A      3.804933   327A      3.815125   328A      3.830010  
     329A      3.837173   330A      3.843520   331A      3.852181  
     332A      3.868852   333A      3.884092   334A      3.886841  
     335A      3.889998   336A      3.898834   337A      3.912398  
     338A      3.934357   339A      3.943853   340A      3.952301  
     341A      3.971085   342A      3.971911   343A      3.976582  
     344A      3.978765   345A      3.988776   346A      3.998872  
     347A      4.061263   348A      4.066820   349A      4.091846  
     350A      4.115638   351A      4.118742   352A      4.145622  
     353A      4.149335   354A      4.156002   355A      4.192876  
     356A      4.198244   357A      4.202548   358A      4.220435  
     359A      4.226362   360A      4.237669   361A      4.245987  
     362A      4.255262   363A      4.272317   364A      4.291627  
     365A      4.303989   366A      4.324065   367A      4.328580  
     368A      4.343376   369A      4.351804   370A      4.366626  
     371A      4.379221   372A      4.384350   373A      4.397190  
     374A      4.399719   375A      4.411765   376A      4.430830  
     377A      4.437247   378A      4.456161   379A      4.468851  
     380A      4.472408   381A      4.487597   382A      4.502239  
     383A      4.514126   384A      4.515807   385A      4.521742  
     386A      4.540298   387A      4.545683   388A      4.548712  
     389A      4.568284   390A      4.570971   391A      4.577380  
     392A      4.586678   393A      4.603316   394A      4.607663  
     395A      4.621095   396A      4.628132   397A      4.645175  
     398A      4.657164   399A      4.664077   400A      4.675676  
     401A      4.681801   402A      4.692574   403A      4.707676  
     404A      4.712401   405A      4.736768   406A      4.743188  
     407A      4.750394   408A      4.764919   409A      4.768557  
     410A      4.783406   411A      4.790582   412A      4.807477  
     413A      4.814306   414A      4.821859   415A      4.828609  
     416A      4.834202   417A      4.851440   418A      4.861809  
     419A      4.869141   420A      4.880333   421A      4.882410  
     422A      4.903999   423A      4.913438   424A      4.918473  
     425A      4.933543   426A      4.943641   427A      4.951193  
     428A      4.958432   429A      4.968773   430A      4.971980  
     431A      4.979004   432A      4.996640   433A      5.009201  
     434A      5.014465   435A      5.023348   436A      5.036430  
     437A      5.047101   438A      5.062330   439A      5.066880  
     440A      5.073457   441A      5.090872   442A      5.110587  
     443A      5.130488   444A      5.140016   445A      5.142950  
     446A      5.159634   447A      5.169238   448A      5.177084  
     449A      5.204658   450A      5.208573   451A      5.217145  
     452A      5.247541   453A      5.264598   454A      5.277282  
     455A      5.285432   456A      5.292108   457A      5.321882  
     458A      5.332453   459A      5.346050   460A      5.365655  
     461A      5.368535   462A      5.399653   463A      5.410632  
     464A      5.442214   465A      5.451051   466A      5.460778  
     467A      5.491878   468A      5.516212   469A      5.554552  
     470A      5.581027   471A      5.589147   472A      5.593920  
     473A      5.603819   474A      5.649858   475A      5.656252  
     476A      5.675302   477A      5.724153   478A      5.734659  
     479A      5.755031   480A      5.770788   481A      5.782144  
     482A      5.789511   483A      5.794728   484A      5.824970  
     485A      5.828941   486A      5.833283   487A      5.870520  
     488A      5.924651   489A      5.930345   490A      5.939610  
     491A      5.947383   492A      5.967098   493A      5.995112  
     494A      6.030735   495A      6.064371   496A      6.108392  
     497A      6.113203   498A      6.129906   499A      6.183295  
     500A      6.233656   501A      6.247185   502A      6.274719  
     503A      6.367680   504A      6.393723   505A      6.416583  
     506A      6.437552   507A      6.475621   508A      6.483658  
     509A      6.503589   510A      6.532910   511A      6.542062  
     512A      6.558963   513A      6.567767   514A      6.641788  
     515A      6.657453   516A      6.773446   517A      6.829900  
     518A      6.926853   519A      6.976749   520A      6.998021  
     521A      7.146304   522A      7.301679   523A      7.370190  
     524A      7.435852   525A      7.492734   526A      7.561821  
     527A      7.609733   528A      7.651915   529A      7.699908  
     530A      7.710236   531A      7.724046   532A      7.762912  
     533A      7.829328   534A      7.858521   535A      7.909795  
     536A      7.954423   537A      7.998521   538A      8.102881  
     539A      8.255597   540A      8.352663   541A      8.364376  
     542A      8.535570   543A      8.750516   544A      9.565332  
     545A      9.605741   546A      9.644115   547A      9.823521  
     548A      9.883317   549A      9.994008   550A     10.026765  
     551A     10.121857   552A     10.334678   553A     11.352460  
     554A     11.752385   555A     12.774863   556A     13.528042  
     557A     14.081313   558A     14.557569   559A     14.736705  
     560A     43.861659   561A     44.446851   562A     45.499649  
     563A     45.953568   564A     61.663492  

    Final Occupation by Irrep:
              A 
    DOCC [    13 ]

  @DF-RHF Final Energy:  -118.30807984178195

   => Energetics <=

    Nuclear Repulsion Energy =             82.8115511792952361
    One-Electron Energy =                -321.9779345282643135
    Two-Electron Energy =                 120.8583035071871308
    Total Energy =                       -118.3080798417819466

Computation Completed


Properties will be evaluated at   0.000000,   0.000000,   0.000000 [a0]

Properties computed using the SCF density matrix

  Nuclear Dipole Moment: [e a0]
     X:  -118.5626      Y:    -5.2721      Z:    -3.6114

  Electronic Dipole Moment: [e a0]
     X:   118.5720      Y:     5.2594      Z:     3.6406

  Dipole Moment: [e a0]
     X:     0.0094      Y:    -0.0127      Z:     0.0292     Total:     0.0332

  Dipole Moment: [D]
     X:     0.0239      Y:    -0.0324      Z:     0.0743     Total:     0.0845


*** tstop() called on r282 at Fri Sep 10 22:34:32 2021
Module time:
	user time   =      47.76 seconds =       0.80 minutes
	system time =       0.78 seconds =       0.01 minutes
	total time  =         48 seconds =       0.80 minutes
Total time:
	user time   =     199.96 seconds =       3.33 minutes
	system time =       3.64 seconds =       0.06 minutes
	total time  =        204 seconds =       3.40 minutes
  Constructing Basis Sets for SAPT...

   => Loading Basis Set <=

    Name: (JUN-CC-PVTZ AUX)
    Role: RIFIT
    Keyword: DF_BASIS_SAPT
    atoms 1-2, 9, 12, 16-18             entry C          line   132 file /home/r08543048/miniconda3/share/psi4/basis/jun-cc-pvtz-ri.gbs 
    atoms 3-4, 6-8, 10-11, 13-15, 19-26 entry H          line    30 file /home/r08543048/miniconda3/share/psi4/basis/jun-cc-pvtz-ri.gbs 
    atoms 5                             entry O          line   244 file /home/r08543048/miniconda3/share/psi4/basis/jun-cc-pvtz-ri.gbs 


  //>>>>>>>>>>>>>>>>>>>>>>>>>>>>>>>>>>>//
  //               SAPT0               //
  //<<<<<<<<<<<<<<<<<<<<<<<<<<<<<<<<<<<//


*** tstart() called on r282
*** at Fri Sep 10 22:34:32 2021

        SAPT0  
    Ed Hohenstein
     6 June 2009

      Orbital Information
  --------------------------
    NSO        =       564
    NMO        =       564
    NRI        =      1316
    NOCC A     =        21
    NOCC B     =        13
    FOCC A     =         0
    FOCC B     =         0
    NVIR A     =       543
    NVIR B     =       551

    Elst10,r            =    -0.002342918510 [Eh]
    Exch10              =     0.006430102391 [Eh]
    Exch10 (S^2)        =     0.006418320843 [Eh]

    Iter     Energy [mEh]          dE [mEh]         Residual      Time [s]
       1      -0.38745550       0.387455503       2.451889268             2
       2      -0.46855221       0.081096710       0.396604220             3
       3      -0.46780981      -0.000742400       0.140156483             5
       4      -0.46702956      -0.000780251       0.042255002             6
       5      -0.46704683       0.000017272       0.012829699             7
       6      -0.46710873       0.000061898       0.003221759             9
       7      -0.46711138       0.000002646       0.000829375            10
       8      -0.46710757      -0.000003812       0.000185104            12
       9      -0.46710772       0.000000158       0.000055223            13
      10      -0.46710788       0.000000158       0.000015556            15
      11      -0.46710787      -0.000000010       0.000004772            16
      12      -0.46710786      -0.000000011       0.000001315            18
      13      -0.46710786       0.000000002       0.000000385            19

    CHF Iterations converged


    Iter     Energy [mEh]          dE [mEh]         Residual      Time [s]
       1      -0.75340366       0.753403664       3.572393028             2
       2      -0.88967055       0.136266883       0.828047191             3
       3      -0.89382345       0.004152905       0.214979529             4
       4      -0.89146897      -0.002354484       0.061496886             5
       5      -0.89133464      -0.000134333       0.013491910             7
       6      -0.89148527       0.000150634       0.002339243             8
       7      -0.89147849      -0.000006779       0.000687315             9
       8      -0.89147481      -0.000003678       0.000158226            11
       9      -0.89147527       0.000000456       0.000030142            12
      10      -0.89147534       0.000000068       0.000006731            13
      11      -0.89147532      -0.000000016       0.000001950            15
      12      -0.89147531      -0.000000007       0.000000441            16

    CHF Iterations converged

    Ind20,r (A<-B)      =    -0.000467107863 [Eh]
    Ind20,r (B<-A)      =    -0.000891475313 [Eh]
    Ind20,r             =    -0.001358583176 [Eh]
    Exch-Ind20,r (A<-B) =     0.000399826040 [Eh]
    Exch-Ind20,r (B<-A) =     0.000640870644 [Eh]
    Exch-Ind20,r        =     0.001040696684 [Eh]
    Disp20              =    -0.008615054033 [Eh]
    Disp20 (SS)         =    -0.004307527017 [Eh]
    Disp20 (OS)         =    -0.004307527017 [Eh]
    Exch-Disp20         =     0.000722495549 [Eh]
    Exch-Disp20 (SS)    =     0.000469163117 [Eh]
    Exch-Disp20 (OS)    =     0.000253332432 [Eh]

    SAPT Results 
  --------------------------------------------------------------------------------------------------------
    Electrostatics                 -2.34291851 [mEh]      -1.47020356 [kcal/mol]      -6.15133170 [kJ/mol]
      Elst10,r                     -2.34291851 [mEh]      -1.47020356 [kcal/mol]      -6.15133170 [kJ/mol]

    Exchange                        6.43010239 [mEh]       4.03495017 [kcal/mol]      16.88223150 [kJ/mol]
      Exch10                        6.43010239 [mEh]       4.03495017 [kcal/mol]      16.88223150 [kJ/mol]
      Exch10(S^2)                   6.41832084 [mEh]       4.02755713 [kcal/mol]      16.85129905 [kJ/mol]

    Induction                      -0.79625791 [mEh]      -0.49965938 [kcal/mol]      -2.09057485 [kJ/mol]
      Ind20,r                      -1.35858318 [mEh]      -0.85252381 [kcal/mol]      -3.56695964 [kJ/mol]
      Exch-Ind20,r                  1.04069668 [mEh]       0.65304703 [kcal/mol]       2.73234877 [kJ/mol]
      delta HF,r (2)               -0.47837141 [mEh]      -0.30018259 [kcal/mol]      -1.25596398 [kJ/mol]

    Dispersion                     -7.89255848 [mEh]      -4.95265522 [kcal/mol]     -20.72190945 [kJ/mol]
      Disp20                       -8.61505403 [mEh]      -5.40602802 [kcal/mol]     -22.61882125 [kJ/mol]
      Exch-Disp20                   0.72249555 [mEh]       0.45337280 [kcal/mol]       1.89691180 [kJ/mol]
      Disp20 (SS)                  -4.30752702 [mEh]      -2.70301401 [kcal/mol]     -11.30941062 [kJ/mol]
      Disp20 (OS)                  -4.30752702 [mEh]      -2.70301401 [kcal/mol]     -11.30941062 [kJ/mol]
      Exch-Disp20 (SS)              0.46916312 [mEh]       0.29440430 [kcal/mol]       1.23178759 [kJ/mol]
      Exch-Disp20 (OS)              0.25333243 [mEh]       0.15896850 [kcal/mol]       0.66512421 [kJ/mol]

  Total HF                          3.29092597 [mEh]       2.06508723 [kcal/mol]       8.64032495 [kJ/mol]
  Total SAPT0                      -4.60163251 [mEh]      -2.88756800 [kcal/mol]     -12.08158449 [kJ/mol]

  Special recipe for scaled SAPT0 (see Manual):
    Electrostatics sSAPT0          -2.34291851 [mEh]      -1.47020356 [kcal/mol]      -6.15133170 [kJ/mol]
    Exchange sSAPT0                 6.43010239 [mEh]       4.03495017 [kcal/mol]      16.88223150 [kJ/mol]
    Induction sSAPT0               -0.79051643 [mEh]      -0.49605655 [kcal/mol]      -2.07550061 [kJ/mol]
    Dispersion sSAPT0              -7.88857251 [mEh]      -4.95015399 [kcal/mol]     -20.71144428 [kJ/mol]
  Total sSAPT0                     -4.59190507 [mEh]      -2.88146393 [kcal/mol]     -12.05604509 [kJ/mol]
  --------------------------------------------------------------------------------------------------------

*** tstop() called on r282 at Fri Sep 10 22:37:24 2021
Module time:
	user time   =     150.22 seconds =       2.50 minutes
	system time =      21.59 seconds =       0.36 minutes
	total time  =        172 seconds =       2.87 minutes
Total time:
	user time   =     350.35 seconds =       5.84 minutes
	system time =      25.23 seconds =       0.42 minutes
	total time  =        376 seconds =       6.27 minutes

    Psi4 stopped on: Friday, 10 September 2021 10:37PM
    Psi4 wall time for execution: 0:06:16.04

*** Psi4 exiting successfully. Buy a developer a beer!
