
    -----------------------------------------------------------------------
          Psi4: An Open-Source Ab Initio Electronic Structure Package
                               Psi4 1.3.2 release

                         Git: Rev {HEAD} ecbda83 


    R. M. Parrish, L. A. Burns, D. G. A. Smith, A. C. Simmonett,
    A. E. DePrince III, E. G. Hohenstein, U. Bozkaya, A. Yu. Sokolov,
    R. Di Remigio, R. M. Richard, J. F. Gonthier, A. M. James,
    H. R. McAlexander, A. Kumar, M. Saitow, X. Wang, B. P. Pritchard,
    P. Verma, H. F. Schaefer III, K. Patkowski, R. A. King, E. F. Valeev,
    F. A. Evangelista, J. M. Turney, T. D. Crawford, and C. D. Sherrill,
    J. Chem. Theory Comput. 13(7) pp 3185--3197 (2017).
    (doi: 10.1021/acs.jctc.7b00174)


                         Additional Contributions by
    P. Kraus, H. Kruse, M. H. Lechner, M. C. Schieber, R. A. Shaw,
    A. Alenaizan, R. Galvelis, Z. L. Glick, S. Lehtola, and J. P. Misiewicz

    -----------------------------------------------------------------------


    Psi4 started on: Friday, 10 September 2021 11:02PM

    Process ID: 57302
    Host:       r282
    PSIDATADIR: /home/r08543048/miniconda3/share/psi4
    Memory:     500.0 MiB
    Threads:    1
    
  ==> Input File <==

--------------------------------------------------------------------------
# Any line starting with the # character is a comment line
#! Sample  computation

memory 22 gb

molecule Dimer {
0 1
 C -2.068512    1.026380   -0.486185
 C -1.854972   -0.469935   -0.371553
 O -1.437423   -0.860787    0.937017
 H -2.873207    1.353857    0.173697
 H -2.341067    1.296564   -1.506916
 H -1.160327    1.561016   -0.212623
 H -2.760680   -1.010665   -0.660175
 H -1.053350   -0.794160   -1.033097
 H -2.144242   -0.633817    1.550532






    
    
    
 --
0 1
 C  1.904331   -1.177250   -0.342938
 C  1.836223    0.330075   -0.558347
 C  1.726421    1.082880    0.762159
 H  2.783548   -1.439484    0.247554
 H  1.024423   -1.526221    0.198957
 H  1.964276   -1.717842   -1.287805
 H  0.977800    0.572694   -1.189523
 H  2.720982    0.666313   -1.103442
 H  1.663009    2.160629    0.609241
 H  0.840271    0.759449    1.309259
 H  2.597006    0.885069    1.389393
 







units angstrom

no_reorient
symmetry c1
}

set globals{
  basis jun-cc-pvtz
}

energy('sapt0')


--------------------------------------------------------------------------

  Memory set to  20.489 GiB by Python driver.

  //>>>>>>>>>>>>>>>>>>>>>>>>>>>>>>>>>>>//
  //              Dimer HF             //
  //<<<<<<<<<<<<<<<<<<<<<<<<<<<<<<<<<<<//


*** tstart() called on r282
*** at Fri Sep 10 23:02:39 2021

   => Loading Basis Set <=

    Name: JUN-CC-PVTZ
    Role: ORBITAL
    Keyword: BASIS
    atoms 1-2, 10-12 entry C          line   217 file /home/r08543048/miniconda3/share/psi4/basis/jun-cc-pvtz.gbs 
    atoms 3          entry O          line   305 file /home/r08543048/miniconda3/share/psi4/basis/jun-cc-pvtz.gbs 
    atoms 4-9, 13-20 entry H          line    36 file /home/r08543048/miniconda3/share/psi4/basis/jun-cc-pvtz.gbs 


         ---------------------------------------------------------
                                   SCF
               by Justin Turney, Rob Parrish, Andy Simmonett
                          and Daniel G. A. Smith
                              RHF Reference
                        1 Threads,  20980 MiB Core
         ---------------------------------------------------------

  ==> Geometry <==

    Molecular point group: c1
    Full point group: C1

    Geometry (in Angstrom), charge = 0, multiplicity = 1:

       Center              X                  Y                   Z               Mass       
    ------------   -----------------  -----------------  -----------------  -----------------
         C           -2.043944868120     1.049822996189    -0.502813880644    12.000000000000
         C           -1.830404868120    -0.446492003811    -0.388181880644    12.000000000000
         O           -1.412855868120    -0.837344003811     0.920388119356    15.994914619570
         H           -2.848639868120     1.377299996189     0.157068119356     1.007825032230
         H           -2.316499868120     1.320006996189    -1.523544880644     1.007825032230
         H           -1.135759868120     1.584458996189    -0.229251880644     1.007825032230
         H           -2.736112868120    -0.987222003811    -0.676803880644     1.007825032230
         H           -1.028782868120    -0.770717003811    -1.049725880644     1.007825032230
         H           -2.119674868120    -0.610374003811     1.533903119356     1.007825032230
         C            1.928898131880    -1.153807003811    -0.359566880644    12.000000000000
         C            1.860790131880     0.353517996189    -0.574975880644    12.000000000000
         C            1.750988131880     1.106322996189     0.745530119356    12.000000000000
         H            2.808115131880    -1.416041003811     0.230925119356     1.007825032230
         H            1.048990131880    -1.502778003811     0.182328119356     1.007825032230
         H            1.988843131880    -1.694399003811    -1.304433880644     1.007825032230
         H            1.002367131880     0.596136996189    -1.206151880644     1.007825032230
         H            2.745549131880     0.689755996189    -1.120070880644     1.007825032230
         H            1.687576131880     2.184071996189     0.592612119356     1.007825032230
         H            0.864838131880     0.782891996189     1.292630119356     1.007825032230
         H            2.621573131880     0.908511996189     1.372764119356     1.007825032230

  Running in c1 symmetry.

  Rotational constants: A =      0.13299  B =      0.04805  C =      0.04355 [cm^-1]
  Rotational constants: A =   3987.07014  B =   1440.47515  C =   1305.68093 [MHz]
  Nuclear repulsion =  254.846483549232659

  Charge       = 0
  Multiplicity = 1
  Electrons    = 52
  Nalpha       = 26
  Nbeta        = 26

  ==> Algorithm <==

  SCF Algorithm Type is DF.
  DIIS enabled.
  MOM disabled.
  Fractional occupation disabled.
  Guess Type is SAD.
  Energy threshold   = 1.00e-08
  Density threshold  = 1.00e-08
  Integral threshold = 0.00e+00

  ==> Primary Basis <==

  Basis Set: JUN-CC-PVTZ
    Blend: JUN-CC-PVTZ
    Number of shells: 162
    Number of basis function: 430
    Number of Cartesian functions: 480
    Spherical Harmonics?: true
    Max angular momentum: 3

   => Loading Basis Set <=

    Name: (JUN-CC-PVTZ AUX)
    Role: JKFIT
    Keyword: DF_BASIS_SCF
    atoms 1-2, 10-12 entry C          line   152 file /home/r08543048/miniconda3/share/psi4/basis/jun-cc-pvtz-jkfit.gbs 
    atoms 3          entry O          line   272 file /home/r08543048/miniconda3/share/psi4/basis/jun-cc-pvtz-jkfit.gbs 
    atoms 4-9, 13-20 entry H          line    70 file /home/r08543048/miniconda3/share/psi4/basis/jun-cc-pvtz-jkfit.gbs 

  ==> Pre-Iterations <==

   -------------------------------------------------------
    Irrep   Nso     Nmo     Nalpha   Nbeta   Ndocc  Nsocc
   -------------------------------------------------------
     A        430     430       0       0       0       0
   -------------------------------------------------------
    Total     430     430      26      26      26       0
   -------------------------------------------------------

  ==> Integral Setup <==

  ==> DiskDFJK: Density-Fitted J/K Matrices <==

    J tasked:                  Yes
    K tasked:                  Yes
    wK tasked:                  No
    OpenMP threads:              1
    Integrals threads:           1
    Memory [MiB]:            15735
    Algorithm:                Core
    Integral Cache:           SAVE
    Schwarz Cutoff:          1E-12
    Fitting Condition:       1E-10

   => Auxiliary Basis Set <=

  Basis Set: (JUN-CC-PVTZ AUX)
    Blend: JUN-CC-PVTZ-JKFIT
    Number of shells: 314
    Number of basis function: 990
    Number of Cartesian functions: 1186
    Spherical Harmonics?: true
    Max angular momentum: 4

  Minimum eigenvalue in the overlap matrix is 9.3102404172E-05.
  Using Symmetric Orthogonalization.

  SCF Guess: Superposition of Atomic Densities via on-the-fly atomic UHF.

  ==> Iterations <==

                           Total Energy        Delta E     RMS |[F,P]|

   @DF-RHF iter SAD:  -271.28655115001283   -2.71287e+02   0.00000e+00 
   @DF-RHF iter   1:  -272.15765283531420   -8.71102e-01   1.66428e-03 DIIS
   @DF-RHF iter   2:  -272.38937687476960   -2.31724e-01   8.40414e-04 DIIS
   @DF-RHF iter   3:  -272.44653209799463   -5.71552e-02   1.50150e-04 DIIS
   @DF-RHF iter   4:  -272.44996110950842   -3.42901e-03   5.64019e-05 DIIS
   @DF-RHF iter   5:  -272.45028553461032   -3.24425e-04   1.18478e-05 DIIS
   @DF-RHF iter   6:  -272.45030627835450   -2.07437e-05   2.80008e-06 DIIS
   @DF-RHF iter   7:  -272.45030765323236   -1.37488e-06   7.41512e-07 DIIS
   @DF-RHF iter   8:  -272.45030775181993   -9.85876e-08   2.07476e-07 DIIS
   @DF-RHF iter   9:  -272.45030776177623   -9.95630e-09   5.53531e-08 DIIS
   @DF-RHF iter  10:  -272.45030776260626   -8.30028e-10   1.30840e-08 DIIS
   @DF-RHF iter  11:  -272.45030776264639   -4.01315e-11   3.44173e-09 DIIS
  Energy and wave function converged.


  ==> Post-Iterations <==

    Orbital Energies [Eh]
    ---------------------

    Doubly Occupied:                                                      

       1A    -20.558018     2A    -11.275603     3A    -11.218579  
       4A    -11.208862     5A    -11.198607     6A    -11.197024  
       7A     -1.358322     8A     -1.046242     9A     -1.015436  
      10A     -0.915637    11A     -0.849606    12A     -0.791952  
      13A     -0.690901    14A     -0.628555    15A     -0.615561  
      16A     -0.604752    17A     -0.590794    18A     -0.548560  
      19A     -0.539982    20A     -0.527433    21A     -0.520352  
      22A     -0.485175    23A     -0.467328    24A     -0.466386  
      25A     -0.459870    26A     -0.445635  

    Virtual:                                                              

      27A      0.051842    28A      0.056621    29A      0.060632  
      30A      0.062499    31A      0.073478    32A      0.079958  
      33A      0.090529    34A      0.097284    35A      0.100654  
      36A      0.116581    37A      0.120267    38A      0.120597  
      39A      0.127155    40A      0.133522    41A      0.143369  
      42A      0.155277    43A      0.174287    44A      0.181751  
      45A      0.193339    46A      0.209800    47A      0.217606  
      48A      0.229653    49A      0.246893    50A      0.255687  
      51A      0.262078    52A      0.270841    53A      0.275205  
      54A      0.279042    55A      0.287234    56A      0.297389  
      57A      0.300663    58A      0.308875    59A      0.313886  
      60A      0.325016    61A      0.330309    62A      0.335259  
      63A      0.343113    64A      0.348333    65A      0.351103  
      66A      0.352888    67A      0.361804    68A      0.370857  
      69A      0.374042    70A      0.378213    71A      0.385303  
      72A      0.403683    73A      0.413278    74A      0.415205  
      75A      0.425712    76A      0.434288    77A      0.442574  
      78A      0.448148    79A      0.457955    80A      0.470573  
      81A      0.487825    82A      0.498793    83A      0.510134  
      84A      0.519472    85A      0.525994    86A      0.533051  
      87A      0.546490    88A      0.550897    89A      0.561441  
      90A      0.565385    91A      0.575768    92A      0.589749  
      93A      0.599885    94A      0.638651    95A      0.648375  
      96A      0.656441    97A      0.671211    98A      0.685318  
      99A      0.697353   100A      0.709086   101A      0.718494  
     102A      0.735138   103A      0.741619   104A      0.754910  
     105A      0.763585   106A      0.768124   107A      0.790771  
     108A      0.794540   109A      0.799916   110A      0.807784  
     111A      0.814784   112A      0.820540   113A      0.822272  
     114A      0.835150   115A      0.837730   116A      0.860076  
     117A      0.862421   118A      0.877319   119A      0.883412  
     120A      0.888720   121A      0.898371   122A      0.910540  
     123A      0.912248   124A      0.926462   125A      0.946766  
     126A      0.950151   127A      0.983841   128A      0.986296  
     129A      0.992005   130A      1.006269   131A      1.018955  
     132A      1.021838   133A      1.056756   134A      1.073050  
     135A      1.074862   136A      1.109331   137A      1.114971  
     138A      1.142233   139A      1.145000   140A      1.171007  
     141A      1.182363   142A      1.195942   143A      1.232527  
     144A      1.241269   145A      1.257243   146A      1.263417  
     147A      1.288559   148A      1.305505   149A      1.323846  
     150A      1.332141   151A      1.339724   152A      1.354107  
     153A      1.368879   154A      1.380223   155A      1.396946  
     156A      1.403592   157A      1.414258   158A      1.428616  
     159A      1.444367   160A      1.456061   161A      1.459934  
     162A      1.473750   163A      1.480006   164A      1.501670  
     165A      1.507160   166A      1.511415   167A      1.536111  
     168A      1.538279   169A      1.554938   170A      1.558570  
     171A      1.582250   172A      1.592522   173A      1.601185  
     174A      1.606746   175A      1.620207   176A      1.633893  
     177A      1.635640   178A      1.658154   179A      1.662211  
     180A      1.668829   181A      1.698589   182A      1.717130  
     183A      1.719390   184A      1.728495   185A      1.739618  
     186A      1.753802   187A      1.758029   188A      1.799682  
     189A      1.814354   190A      1.831777   191A      1.863622  
     192A      1.872320   193A      1.880129   194A      1.897954  
     195A      1.915680   196A      1.936584   197A      1.960126  
     198A      1.971973   199A      1.977915   200A      2.003923  
     201A      2.013788   202A      2.092078   203A      2.214391  
     204A      2.331485   205A      2.403367   206A      2.433657  
     207A      2.543070   208A      2.565048   209A      2.753004  
     210A      2.759485   211A      2.769787   212A      2.799421  
     213A      2.810421   214A      2.820894   215A      2.837562  
     216A      2.853287   217A      2.883686   218A      2.886740  
     219A      2.895688   220A      2.914056   221A      2.931471  
     222A      2.939865   223A      2.955651   224A      2.965281  
     225A      2.988973   226A      3.016414   227A      3.036413  
     228A      3.071237   229A      3.098660   230A      3.107168  
     231A      3.121222   232A      3.128884   233A      3.142822  
     234A      3.174941   235A      3.181276   236A      3.215199  
     237A      3.222580   238A      3.240647   239A      3.267206  
     240A      3.271113   241A      3.281139   242A      3.298850  
     243A      3.304312   244A      3.312869   245A      3.325209  
     246A      3.330894   247A      3.341750   248A      3.374275  
     249A      3.379668   250A      3.394750   251A      3.401954  
     252A      3.422259   253A      3.434624   254A      3.439298  
     255A      3.450617   256A      3.474530   257A      3.479188  
     258A      3.493653   259A      3.499299   260A      3.507249  
     261A      3.511210   262A      3.517456   263A      3.529197  
     264A      3.545779   265A      3.548741   266A      3.549986  
     267A      3.573892   268A      3.589339   269A      3.599943  
     270A      3.617137   271A      3.640076   272A      3.646099  
     273A      3.658457   274A      3.665962   275A      3.686728  
     276A      3.717036   277A      3.731141   278A      3.736769  
     279A      3.751045   280A      3.769715   281A      3.795760  
     282A      3.818517   283A      3.820702   284A      3.832459  
     285A      3.841053   286A      3.854447   287A      3.865233  
     288A      3.886937   289A      3.899793   290A      3.910918  
     291A      3.940202   292A      3.955595   293A      3.961651  
     294A      3.971773   295A      3.981621   296A      3.995873  
     297A      4.007290   298A      4.064812   299A      4.070358  
     300A      4.083780   301A      4.110684   302A      4.126804  
     303A      4.187134   304A      4.203549   305A      4.208957  
     306A      4.220985   307A      4.228554   308A      4.233113  
     309A      4.244579   310A      4.260788   311A      4.274537  
     312A      4.281577   313A      4.291429   314A      4.319809  
     315A      4.328811   316A      4.342383   317A      4.350956  
     318A      4.358465   319A      4.372265   320A      4.379546  
     321A      4.386528   322A      4.399688   323A      4.421317  
     324A      4.423060   325A      4.428753   326A      4.445560  
     327A      4.465492   328A      4.478756   329A      4.485925  
     330A      4.496196   331A      4.510451   332A      4.520812  
     333A      4.525041   334A      4.539384   335A      4.555205  
     336A      4.559713   337A      4.567225   338A      4.606073  
     339A      4.638067   340A      4.639111   341A      4.653670  
     342A      4.680551   343A      4.693027   344A      4.705833  
     345A      4.726174   346A      4.736973   347A      4.746409  
     348A      4.769077   349A      4.827983   350A      4.837800  
     351A      4.847239   352A      4.858254   353A      4.887939  
     354A      4.904041   355A      4.915432   356A      4.983262  
     357A      5.000353   358A      5.013037   359A      5.040262  
     360A      5.119543   361A      5.148961   362A      5.167915  
     363A      5.190452   364A      5.204602   365A      5.207817  
     366A      5.222211   367A      5.264299   368A      5.274622  
     369A      5.285015   370A      5.288382   371A      5.300055  
     372A      5.305446   373A      5.314524   374A      5.351616  
     375A      5.383659   376A      5.402762   377A      5.436466  
     378A      5.463567   379A      5.487811   380A      5.529676  
     381A      5.536143   382A      5.591884   383A      5.598696  
     384A      5.617182   385A      5.621787   386A      5.729772  
     387A      5.735548   388A      5.747289   389A      5.751653  
     390A      5.762522   391A      5.781502   392A      5.791173  
     393A      5.808208   394A      5.824586   395A      5.829590  
     396A      5.840157   397A      5.894130   398A      5.918844  
     399A      5.936108   400A      5.939785   401A      5.971172  
     402A      5.977606   403A      6.006601   404A      6.078013  
     405A      6.118444   406A      6.299134   407A      6.392610  
     408A      6.472797   409A      6.494652   410A      6.497614  
     411A      6.529766   412A      6.548320   413A      6.561131  
     414A      6.566515   415A      6.607557   416A      6.911538  
     417A      7.064898   418A      7.235195   419A      7.288747  
     420A      7.394891   421A      7.504845   422A      7.637015  
     423A      7.848473   424A      8.164237   425A     13.622811  
     426A     13.751161   427A     13.894375   428A     14.469827  
     429A     14.599101   430A     14.771617  

    Final Occupation by Irrep:
              A 
    DOCC [    26 ]

  @DF-RHF Final Energy:  -272.45030776264639

   => Energetics <=

    Nuclear Repulsion Energy =            254.8464835492326586
    One-Electron Energy =                -874.1432355125975846
    Two-Electron Energy =                 346.8464442007185653
    Total Energy =                       -272.4503077626463892

Computation Completed


Properties will be evaluated at   0.000000,   0.000000,   0.000000 [a0]

Properties computed using the SCF density matrix

  Nuclear Dipole Moment: [e a0]
     X:     2.4141      Y:     2.3037      Z:    -1.6340

  Electronic Dipole Moment: [e a0]
     X:    -3.0932      Y:    -1.9930      Z:     1.4613

  Dipole Moment: [e a0]
     X:    -0.6790      Y:     0.3106      Z:    -0.1728     Total:     0.7665

  Dipole Moment: [D]
     X:    -1.7260      Y:     0.7896      Z:    -0.4392     Total:     1.9482


*** tstop() called on r282 at Fri Sep 10 23:03:15 2021
Module time:
	user time   =      35.43 seconds =       0.59 minutes
	system time =       0.90 seconds =       0.01 minutes
	total time  =         36 seconds =       0.60 minutes
Total time:
	user time   =      35.43 seconds =       0.59 minutes
	system time =       0.90 seconds =       0.01 minutes
	total time  =         36 seconds =       0.60 minutes

  //>>>>>>>>>>>>>>>>>>>>>>>>>>>>>>>>>>>//
  //            Monomer A HF           //
  //<<<<<<<<<<<<<<<<<<<<<<<<<<<<<<<<<<<//


*** tstart() called on r282
*** at Fri Sep 10 23:03:15 2021

   => Loading Basis Set <=

    Name: JUN-CC-PVTZ
    Role: ORBITAL
    Keyword: BASIS
    atoms 1-2, 10-12 entry C          line   217 file /home/r08543048/miniconda3/share/psi4/basis/jun-cc-pvtz.gbs 
    atoms 3          entry O          line   305 file /home/r08543048/miniconda3/share/psi4/basis/jun-cc-pvtz.gbs 
    atoms 4-9, 13-20 entry H          line    36 file /home/r08543048/miniconda3/share/psi4/basis/jun-cc-pvtz.gbs 


         ---------------------------------------------------------
                                   SCF
               by Justin Turney, Rob Parrish, Andy Simmonett
                          and Daniel G. A. Smith
                              RHF Reference
                        1 Threads,  20980 MiB Core
         ---------------------------------------------------------

  ==> Geometry <==

    Molecular point group: c1
    Full point group: C1

    Geometry (in Angstrom), charge = 0, multiplicity = 1:

       Center              X                  Y                   Z               Mass       
    ------------   -----------------  -----------------  -----------------  -----------------
         C           -2.043944868120     1.049822996189    -0.502813880644    12.000000000000
         C           -1.830404868120    -0.446492003811    -0.388181880644    12.000000000000
         O           -1.412855868120    -0.837344003811     0.920388119356    15.994914619570
         H           -2.848639868120     1.377299996189     0.157068119356     1.007825032230
         H           -2.316499868120     1.320006996189    -1.523544880644     1.007825032230
         H           -1.135759868120     1.584458996189    -0.229251880644     1.007825032230
         H           -2.736112868120    -0.987222003811    -0.676803880644     1.007825032230
         H           -1.028782868120    -0.770717003811    -1.049725880644     1.007825032230
         H           -2.119674868120    -0.610374003811     1.533903119356     1.007825032230
      Gh(C)           1.928898131880    -1.153807003811    -0.359566880644    12.000000000000
      Gh(C)           1.860790131880     0.353517996189    -0.574975880644    12.000000000000
      Gh(C)           1.750988131880     1.106322996189     0.745530119356    12.000000000000
      Gh(H)           2.808115131880    -1.416041003811     0.230925119356     1.007825032230
      Gh(H)           1.048990131880    -1.502778003811     0.182328119356     1.007825032230
      Gh(H)           1.988843131880    -1.694399003811    -1.304433880644     1.007825032230
      Gh(H)           1.002367131880     0.596136996189    -1.206151880644     1.007825032230
      Gh(H)           2.745549131880     0.689755996189    -1.120070880644     1.007825032230
      Gh(H)           1.687576131880     2.184071996189     0.592612119356     1.007825032230
      Gh(H)           0.864838131880     0.782891996189     1.292630119356     1.007825032230
      Gh(H)           2.621573131880     0.908511996189     1.372764119356     1.007825032230

  Running in c1 symmetry.

  Rotational constants: A =      0.13299  B =      0.04805  C =      0.04355 [cm^-1]
  Rotational constants: A =   3987.07014  B =   1440.47515  C =   1305.68093 [MHz]
  Nuclear repulsion =   81.735216568804404

  Charge       = 0
  Multiplicity = 1
  Electrons    = 26
  Nalpha       = 13
  Nbeta        = 13

  ==> Algorithm <==

  SCF Algorithm Type is DF.
  DIIS enabled.
  MOM disabled.
  Fractional occupation disabled.
  Guess Type is SAD.
  Energy threshold   = 1.00e-08
  Density threshold  = 1.00e-08
  Integral threshold = 0.00e+00

  ==> Primary Basis <==

  Basis Set: JUN-CC-PVTZ
    Blend: JUN-CC-PVTZ
    Number of shells: 162
    Number of basis function: 430
    Number of Cartesian functions: 480
    Spherical Harmonics?: true
    Max angular momentum: 3

   => Loading Basis Set <=

    Name: (JUN-CC-PVTZ AUX)
    Role: JKFIT
    Keyword: DF_BASIS_SCF
    atoms 1-2, 10-12 entry C          line   152 file /home/r08543048/miniconda3/share/psi4/basis/jun-cc-pvtz-jkfit.gbs 
    atoms 3          entry O          line   272 file /home/r08543048/miniconda3/share/psi4/basis/jun-cc-pvtz-jkfit.gbs 
    atoms 4-9, 13-20 entry H          line    70 file /home/r08543048/miniconda3/share/psi4/basis/jun-cc-pvtz-jkfit.gbs 

  ==> Pre-Iterations <==

   -------------------------------------------------------
    Irrep   Nso     Nmo     Nalpha   Nbeta   Ndocc  Nsocc
   -------------------------------------------------------
     A        430     430       0       0       0       0
   -------------------------------------------------------
    Total     430     430      13      13      13       0
   -------------------------------------------------------

  ==> Integral Setup <==

  ==> DiskDFJK: Density-Fitted J/K Matrices <==

    J tasked:                  Yes
    K tasked:                  Yes
    wK tasked:                  No
    OpenMP threads:              1
    Integrals threads:           1
    Memory [MiB]:            15735
    Algorithm:                Core
    Integral Cache:           LOAD
    Schwarz Cutoff:          1E-12
    Fitting Condition:       1E-10

   => Auxiliary Basis Set <=

  Basis Set: (JUN-CC-PVTZ AUX)
    Blend: JUN-CC-PVTZ-JKFIT
    Number of shells: 314
    Number of basis function: 990
    Number of Cartesian functions: 1186
    Spherical Harmonics?: true
    Max angular momentum: 4

  Minimum eigenvalue in the overlap matrix is 9.3102404172E-05.
  Using Symmetric Orthogonalization.

  SCF Guess: Superposition of Atomic Densities via on-the-fly atomic UHF.

  ==> Iterations <==

                           Total Energy        Delta E     RMS |[F,P]|

   @DF-RHF iter SAD:  -153.42965899533061   -1.53430e+02   0.00000e+00 
   @DF-RHF iter   1:  -154.01228621225124   -5.82627e-01   1.16716e-03 DIIS
   @DF-RHF iter   2:  -154.11638147389687   -1.04095e-01   6.22358e-04 DIIS
   @DF-RHF iter   3:  -154.14268089196673   -2.62994e-02   1.07402e-04 DIIS
   @DF-RHF iter   4:  -154.14421956978856   -1.53868e-03   4.07219e-05 DIIS
   @DF-RHF iter   5:  -154.14440461169244   -1.85042e-04   7.75510e-06 DIIS
   @DF-RHF iter   6:  -154.14441448173073   -9.87004e-06   1.75647e-06 DIIS
   @DF-RHF iter   7:  -154.14441517306477   -6.91334e-07   4.93998e-07 DIIS
   @DF-RHF iter   8:  -154.14441522397377   -5.09090e-08   1.59658e-07 DIIS
   @DF-RHF iter   9:  -154.14441522972356   -5.74980e-09   4.15657e-08 DIIS
   @DF-RHF iter  10:  -154.14441523014480   -4.21238e-10   8.33847e-09 DIIS
  Energy and wave function converged.


  ==> Post-Iterations <==

    Orbital Energies [Eh]
    ---------------------

    Doubly Occupied:                                                      

       1A    -20.555185     2A    -11.274353     3A    -11.217990  
       4A     -1.354901     5A     -1.014006     6A     -0.847797  
       7A     -0.686609     8A     -0.622432     9A     -0.605759  
      10A     -0.545998    11A     -0.525661    12A     -0.482890  
      13A     -0.444383  

    Virtual:                                                              

      14A      0.038248    15A      0.048992    16A      0.055699  
      17A      0.058436    18A      0.069749    19A      0.078923  
      20A      0.086065    21A      0.094488    22A      0.096813  
      23A      0.113554    24A      0.115419    25A      0.116985  
      26A      0.122301    27A      0.125412    28A      0.138557  
      29A      0.144528    30A      0.152736    31A      0.156303  
      32A      0.170731    33A      0.193559    34A      0.207751  
      35A      0.217632    36A      0.232826    37A      0.248646  
      38A      0.254852    39A      0.263966    40A      0.270867  
      41A      0.274906    42A      0.281393    43A      0.286207  
      44A      0.292597    45A      0.302773    46A      0.309567  
      47A      0.320088    48A      0.322695    49A      0.327167  
      50A      0.336622    51A      0.345035    52A      0.352750  
      53A      0.361129    54A      0.364748    55A      0.371205  
      56A      0.383865    57A      0.395583    58A      0.396381  
      59A      0.400966    60A      0.413478    61A      0.427203  
      62A      0.434243    63A      0.439390    64A      0.449771  
      65A      0.458670    66A      0.475899    67A      0.481459  
      68A      0.495144    69A      0.504436    70A      0.507195  
      71A      0.516142    72A      0.534152    73A      0.548648  
      74A      0.553620    75A      0.555972    76A      0.563788  
      77A      0.580590    78A      0.589717    79A      0.600352  
      80A      0.604890    81A      0.618351    82A      0.626434  
      83A      0.634693    84A      0.648087    85A      0.649991  
      86A      0.664706    87A      0.673488    88A      0.683844  
      89A      0.699831    90A      0.701480    91A      0.709355  
      92A      0.743125    93A      0.748017    94A      0.765794  
      95A      0.779951    96A      0.800353    97A      0.809628  
      98A      0.813785    99A      0.822928   100A      0.840615  
     101A      0.842954   102A      0.878189   103A      0.880027  
     104A      0.897136   105A      0.919128   106A      0.950274  
     107A      0.974151   108A      0.993548   109A      1.017161  
     110A      1.037020   111A      1.047709   112A      1.055884  
     113A      1.069742   114A      1.072963   115A      1.098374  
     116A      1.104456   117A      1.118835   118A      1.128113  
     119A      1.136680   120A      1.141872   121A      1.170464  
     122A      1.183667   123A      1.194274   124A      1.204227  
     125A      1.223594   126A      1.234308   127A      1.238194  
     128A      1.255988   129A      1.272565   130A      1.282590  
     131A      1.289003   132A      1.298261   133A      1.300203  
     134A      1.306097   135A      1.333877   136A      1.348327  
     137A      1.359833   138A      1.365821   139A      1.372157  
     140A      1.375376   141A      1.394995   142A      1.398836  
     143A      1.417138   144A      1.428702   145A      1.435965  
     146A      1.442203   147A      1.457212   148A      1.465817  
     149A      1.474806   150A      1.486708   151A      1.500887  
     152A      1.518578   153A      1.527221   154A      1.534474  
     155A      1.539982   156A      1.566514   157A      1.582375  
     158A      1.591798   159A      1.606124   160A      1.611142  
     161A      1.615022   162A      1.642138   163A      1.655025  
     164A      1.662596   165A      1.681215   166A      1.683835  
     167A      1.704791   168A      1.707704   169A      1.722510  
     170A      1.728106   171A      1.744244   172A      1.757793  
     173A      1.785631   174A      1.814367   175A      1.823934  
     176A      1.848350   177A      1.876009   178A      1.891511  
     179A      1.912763   180A      1.923905   181A      1.929988  
     182A      1.964666   183A      1.989881   184A      2.026138  
     185A      2.053461   186A      2.096231   187A      2.133423  
     188A      2.168077   189A      2.191619   190A      2.202995  
     191A      2.231985   192A      2.335192   193A      2.347624  
     194A      2.388312   195A      2.395827   196A      2.431638  
     197A      2.445425   198A      2.461559   199A      2.466253  
     200A      2.503295   201A      2.552486   202A      2.568854  
     203A      2.599895   204A      2.608996   205A      2.635428  
     206A      2.810373   207A      2.832063   208A      2.853559  
     209A      2.886345   210A      2.910013   211A      2.932431  
     212A      2.993915   213A      3.067209   214A      3.122620  
     215A      3.134474   216A      3.226436   217A      3.231802  
     218A      3.271514   219A      3.289722   220A      3.314638  
     221A      3.334011   222A      3.373462   223A      3.411272  
     224A      3.432308   225A      3.454946   226A      3.459409  
     227A      3.482636   228A      3.501640   229A      3.502540  
     230A      3.536066   231A      3.540764   232A      3.553317  
     233A      3.559963   234A      3.575463   235A      3.591757  
     236A      3.600744   237A      3.603902   238A      3.620997  
     239A      3.628043   240A      3.650446   241A      3.656801  
     242A      3.659805   243A      3.686906   244A      3.704682  
     245A      3.727593   246A      3.738644   247A      3.743864  
     248A      3.772996   249A      3.797404   250A      3.802390  
     251A      3.820153   252A      3.831838   253A      3.836097  
     254A      3.853650   255A      3.884447   256A      3.895500  
     257A      3.900075   258A      3.907308   259A      3.912601  
     260A      3.936167   261A      3.954998   262A      3.956940  
     263A      3.976968   264A      3.993021   265A      4.034118  
     266A      4.049285   267A      4.076809   268A      4.084822  
     269A      4.104965   270A      4.133006   271A      4.148761  
     272A      4.175928   273A      4.179175   274A      4.201079  
     275A      4.222363   276A      4.235500   277A      4.236692  
     278A      4.249474   279A      4.262003   280A      4.277477  
     281A      4.290836   282A      4.318487   283A      4.344213  
     284A      4.346647   285A      4.360364   286A      4.380389  
     287A      4.389984   288A      4.403691   289A      4.409338  
     290A      4.428076   291A      4.450468   292A      4.454342  
     293A      4.462147   294A      4.466201   295A      4.484999  
     296A      4.493636   297A      4.508697   298A      4.529761  
     299A      4.538472   300A      4.553604   301A      4.570155  
     302A      4.572474   303A      4.596968   304A      4.605753  
     305A      4.631258   306A      4.651937   307A      4.658149  
     308A      4.663731   309A      4.684192   310A      4.695069  
     311A      4.703752   312A      4.718804   313A      4.730906  
     314A      4.734825   315A      4.750003   316A      4.759869  
     317A      4.773474   318A      4.814682   319A      4.820471  
     320A      4.827576   321A      4.834345   322A      4.838849  
     323A      4.857384   324A      4.864139   325A      4.874838  
     326A      4.894976   327A      4.904239   328A      4.913456  
     329A      4.919158   330A      4.934412   331A      4.949289  
     332A      4.955949   333A      4.979315   334A      4.989117  
     335A      4.994193   336A      5.012096   337A      5.032465  
     338A      5.051736   339A      5.056054   340A      5.086016  
     341A      5.126804   342A      5.135253   343A      5.146881  
     344A      5.174132   345A      5.188472   346A      5.197202  
     347A      5.214560   348A      5.224251   349A      5.238594  
     350A      5.281470   351A      5.292617   352A      5.300946  
     353A      5.317985   354A      5.369788   355A      5.412608  
     356A      5.417900   357A      5.459792   358A      5.493061  
     359A      5.537555   360A      5.591617   361A      5.609672  
     362A      5.612173   363A      5.629437   364A      5.633338  
     365A      5.633774   366A      5.655911   367A      5.732962  
     368A      5.753951   369A      5.775604   370A      5.839826  
     371A      5.845221   372A      5.892771   373A      5.918130  
     374A      5.929237   375A      5.966992   376A      5.974752  
     377A      6.035511   378A      6.065465   379A      6.084328  
     380A      6.189373   381A      6.205795   382A      6.264089  
     383A      6.294350   384A      6.347039   385A      6.362729  
     386A      6.380382   387A      6.398284   388A      6.428538  
     389A      6.444528   390A      6.497845   391A      6.503472  
     392A      6.510849   393A      6.519699   394A      6.552357  
     395A      6.632539   396A      6.778075   397A      6.906052  
     398A      6.917950   399A      6.993437   400A      7.068045  
     401A      7.238038   402A      7.290361   403A      7.307396  
     404A      7.398212   405A      7.489716   406A      7.517156  
     407A      7.573404   408A      7.593581   409A      7.635015  
     410A      7.648462   411A      7.700104   412A      7.705659  
     413A      7.808645   414A      7.841438   415A      7.853004  
     416A      7.871601   417A      7.916174   418A      8.060790  
     419A      8.169685   420A      8.223393   421A      8.501695  
     422A      9.566343   423A      9.904542   424A      9.927165  
     425A     13.629119   426A     13.854800   427A     14.625207  
     428A     44.245346   429A     45.352629   430A     45.868116  

    Final Occupation by Irrep:
              A 
    DOCC [    13 ]

  @DF-RHF Final Energy:  -154.14441523014480

   => Energetics <=

    Nuclear Repulsion Energy =             81.7352165688044039
    One-Electron Energy =                -371.4033336634970510
    Two-Electron Energy =                 135.5237018645478599
    Total Energy =                       -154.1444152301448014

Computation Completed


Properties will be evaluated at   0.000000,   0.000000,   0.000000 [a0]

Properties computed using the SCF density matrix

  Nuclear Dipole Moment: [e a0]
     X:   -88.3152      Y:    -2.2021      Z:     0.4323

  Electronic Dipole Moment: [e a0]
     X:    87.7133      Y:     2.5517      Z:    -0.6542

  Dipole Moment: [e a0]
     X:    -0.6020      Y:     0.3496      Z:    -0.2219     Total:     0.7306

  Dipole Moment: [D]
     X:    -1.5300      Y:     0.8885      Z:    -0.5640     Total:     1.8570


*** tstop() called on r282 at Fri Sep 10 23:03:33 2021
Module time:
	user time   =      18.03 seconds =       0.30 minutes
	system time =       0.43 seconds =       0.01 minutes
	total time  =         18 seconds =       0.30 minutes
Total time:
	user time   =      53.47 seconds =       0.89 minutes
	system time =       1.33 seconds =       0.02 minutes
	total time  =         54 seconds =       0.90 minutes

  //>>>>>>>>>>>>>>>>>>>>>>>>>>>>>>>>>>>//
  //            Monomer B HF           //
  //<<<<<<<<<<<<<<<<<<<<<<<<<<<<<<<<<<<//


*** tstart() called on r282
*** at Fri Sep 10 23:03:33 2021

   => Loading Basis Set <=

    Name: JUN-CC-PVTZ
    Role: ORBITAL
    Keyword: BASIS
    atoms 1-2, 10-12 entry C          line   217 file /home/r08543048/miniconda3/share/psi4/basis/jun-cc-pvtz.gbs 
    atoms 3          entry O          line   305 file /home/r08543048/miniconda3/share/psi4/basis/jun-cc-pvtz.gbs 
    atoms 4-9, 13-20 entry H          line    36 file /home/r08543048/miniconda3/share/psi4/basis/jun-cc-pvtz.gbs 


         ---------------------------------------------------------
                                   SCF
               by Justin Turney, Rob Parrish, Andy Simmonett
                          and Daniel G. A. Smith
                              RHF Reference
                        1 Threads,  20980 MiB Core
         ---------------------------------------------------------

  ==> Geometry <==

    Molecular point group: c1
    Full point group: C1

    Geometry (in Angstrom), charge = 0, multiplicity = 1:

       Center              X                  Y                   Z               Mass       
    ------------   -----------------  -----------------  -----------------  -----------------
      Gh(C)          -2.043944868120     1.049822996189    -0.502813880644    12.000000000000
      Gh(C)          -1.830404868120    -0.446492003811    -0.388181880644    12.000000000000
      Gh(O)          -1.412855868120    -0.837344003811     0.920388119356    15.994914619570
      Gh(H)          -2.848639868120     1.377299996189     0.157068119356     1.007825032230
      Gh(H)          -2.316499868120     1.320006996189    -1.523544880644     1.007825032230
      Gh(H)          -1.135759868120     1.584458996189    -0.229251880644     1.007825032230
      Gh(H)          -2.736112868120    -0.987222003811    -0.676803880644     1.007825032230
      Gh(H)          -1.028782868120    -0.770717003811    -1.049725880644     1.007825032230
      Gh(H)          -2.119674868120    -0.610374003811     1.533903119356     1.007825032230
         C            1.928898131880    -1.153807003811    -0.359566880644    12.000000000000
         C            1.860790131880     0.353517996189    -0.574975880644    12.000000000000
         C            1.750988131880     1.106322996189     0.745530119356    12.000000000000
         H            2.808115131880    -1.416041003811     0.230925119356     1.007825032230
         H            1.048990131880    -1.502778003811     0.182328119356     1.007825032230
         H            1.988843131880    -1.694399003811    -1.304433880644     1.007825032230
         H            1.002367131880     0.596136996189    -1.206151880644     1.007825032230
         H            2.745549131880     0.689755996189    -1.120070880644     1.007825032230
         H            1.687576131880     2.184071996189     0.592612119356     1.007825032230
         H            0.864838131880     0.782891996189     1.292630119356     1.007825032230
         H            2.621573131880     0.908511996189     1.372764119356     1.007825032230

  Running in c1 symmetry.

  Rotational constants: A =      0.13299  B =      0.04805  C =      0.04355 [cm^-1]
  Rotational constants: A =   3987.07014  B =   1440.47515  C =   1305.68093 [MHz]
  Nuclear repulsion =   82.843995054148451

  Charge       = 0
  Multiplicity = 1
  Electrons    = 26
  Nalpha       = 13
  Nbeta        = 13

  ==> Algorithm <==

  SCF Algorithm Type is DF.
  DIIS enabled.
  MOM disabled.
  Fractional occupation disabled.
  Guess Type is SAD.
  Energy threshold   = 1.00e-08
  Density threshold  = 1.00e-08
  Integral threshold = 0.00e+00

  ==> Primary Basis <==

  Basis Set: JUN-CC-PVTZ
    Blend: JUN-CC-PVTZ
    Number of shells: 162
    Number of basis function: 430
    Number of Cartesian functions: 480
    Spherical Harmonics?: true
    Max angular momentum: 3

   => Loading Basis Set <=

    Name: (JUN-CC-PVTZ AUX)
    Role: JKFIT
    Keyword: DF_BASIS_SCF
    atoms 1-2, 10-12 entry C          line   152 file /home/r08543048/miniconda3/share/psi4/basis/jun-cc-pvtz-jkfit.gbs 
    atoms 3          entry O          line   272 file /home/r08543048/miniconda3/share/psi4/basis/jun-cc-pvtz-jkfit.gbs 
    atoms 4-9, 13-20 entry H          line    70 file /home/r08543048/miniconda3/share/psi4/basis/jun-cc-pvtz-jkfit.gbs 

  ==> Pre-Iterations <==

   -------------------------------------------------------
    Irrep   Nso     Nmo     Nalpha   Nbeta   Ndocc  Nsocc
   -------------------------------------------------------
     A        430     430       0       0       0       0
   -------------------------------------------------------
    Total     430     430      13      13      13       0
   -------------------------------------------------------

  ==> Integral Setup <==

  ==> DiskDFJK: Density-Fitted J/K Matrices <==

    J tasked:                  Yes
    K tasked:                  Yes
    wK tasked:                  No
    OpenMP threads:              1
    Integrals threads:           1
    Memory [MiB]:            15735
    Algorithm:                Core
    Integral Cache:           LOAD
    Schwarz Cutoff:          1E-12
    Fitting Condition:       1E-10

   => Auxiliary Basis Set <=

  Basis Set: (JUN-CC-PVTZ AUX)
    Blend: JUN-CC-PVTZ-JKFIT
    Number of shells: 314
    Number of basis function: 990
    Number of Cartesian functions: 1186
    Spherical Harmonics?: true
    Max angular momentum: 4

  Minimum eigenvalue in the overlap matrix is 9.3102404172E-05.
  Using Symmetric Orthogonalization.

  SCF Guess: Superposition of Atomic Densities via on-the-fly atomic UHF.

  ==> Iterations <==

                           Total Energy        Delta E     RMS |[F,P]|

   @DF-RHF iter SAD:  -117.72670591673179   -1.17727e+02   0.00000e+00 
   @DF-RHF iter   1:  -118.14631785260148   -4.19612e-01   1.19851e-03 DIIS
   @DF-RHF iter   2:  -118.27566095178844   -1.29343e-01   5.67133e-04 DIIS
   @DF-RHF iter   3:  -118.30609012320492   -3.04292e-02   9.53126e-05 DIIS
   @DF-RHF iter   4:  -118.30794166056629   -1.85154e-03   1.88099e-05 DIIS
   @DF-RHF iter   5:  -118.30800005467619   -5.83941e-05   5.29253e-06 DIIS
   @DF-RHF iter   6:  -118.30800468886795   -4.63419e-06   9.51785e-07 DIIS
   @DF-RHF iter   7:  -118.30800486153049   -1.72663e-07   1.79627e-07 DIIS
   @DF-RHF iter   8:  -118.30800486911272   -7.58223e-09   3.16322e-08 DIIS
   @DF-RHF iter   9:  -118.30800486935270   -2.39979e-10   6.25197e-09 DIIS
  Energy and wave function converged.


  ==> Post-Iterations <==

    Orbital Energies [Eh]
    ---------------------

    Doubly Occupied:                                                      

       1A    -11.215564     2A    -11.207940     3A    -11.207872  
       4A     -1.054145     5A     -0.924407     6A     -0.799665  
       7A     -0.624843     8A     -0.598674     9A     -0.548936  
      10A     -0.530250    11A     -0.475911    12A     -0.474472  
      13A     -0.467927  

    Virtual:                                                              

      14A      0.037475    15A      0.049904    16A      0.055592  
      17A      0.059332    18A      0.070735    19A      0.079842  
      20A      0.085905    21A      0.092665    22A      0.096710  
      23A      0.107880    24A      0.116453    25A      0.117856  
      26A      0.120331    27A      0.127613    28A      0.138198  
      29A      0.150725    30A      0.157227    31A      0.167480  
      32A      0.168027    33A      0.192903    34A      0.204993  
      35A      0.208633    36A      0.218569    37A      0.232294  
      38A      0.235164    39A      0.259037    40A      0.277054  
      41A      0.282643    42A      0.290090    43A      0.293243  
      44A      0.300346    45A      0.307923    46A      0.313113  
      47A      0.317538    48A      0.329814    49A      0.339447  
      50A      0.343966    51A      0.345153    52A      0.350110  
      53A      0.355713    54A      0.359475    55A      0.373537  
      56A      0.377862    57A      0.386818    58A      0.390886  
      59A      0.397795    60A      0.406470    61A      0.418224  
      62A      0.424549    63A      0.430035    64A      0.442578  
      65A      0.449382    66A      0.457610    67A      0.467832  
      68A      0.482584    69A      0.488820    70A      0.498112  
      71A      0.517778    72A      0.522655    73A      0.532614  
      74A      0.540904    75A      0.547653    76A      0.552981  
      77A      0.566363    78A      0.576756    79A      0.583059  
      80A      0.599285    81A      0.603835    82A      0.633577  
      83A      0.639603    84A      0.655753    85A      0.658279  
      86A      0.671541    87A      0.679834    88A      0.697023  
      89A      0.736724    90A      0.749893    91A      0.752006  
      92A      0.766344    93A      0.776390    94A      0.781745  
      95A      0.790732    96A      0.802951    97A      0.809414  
      98A      0.823394    99A      0.827379   100A      0.838154  
     101A      0.854822   102A      0.868065   103A      0.879302  
     104A      0.892554   105A      0.897901   106A      0.923827  
     107A      0.937846   108A      0.953040   109A      0.966762  
     110A      0.977012   111A      0.984961   112A      0.999872  
     113A      1.014672   114A      1.021475   115A      1.025675  
     116A      1.060393   117A      1.068097   118A      1.085846  
     119A      1.104031   120A      1.128811   121A      1.140964  
     122A      1.145665   123A      1.147449   124A      1.160649  
     125A      1.166868   126A      1.187164   127A      1.196657  
     128A      1.222601   129A      1.241904   130A      1.252708  
     131A      1.256787   132A      1.282301   133A      1.285412  
     134A      1.290566   135A      1.326539   136A      1.334903  
     137A      1.339999   138A      1.344303   139A      1.373962  
     140A      1.382837   141A      1.390498   142A      1.395497  
     143A      1.410736   144A      1.413647   145A      1.421038  
     146A      1.435830   147A      1.441153   148A      1.461358  
     149A      1.483213   150A      1.495730   151A      1.517289  
     152A      1.532406   153A      1.542044   154A      1.544518  
     155A      1.554927   156A      1.576729   157A      1.579667  
     158A      1.587721   159A      1.592384   160A      1.608480  
     161A      1.621044   162A      1.623459   163A      1.639271  
     164A      1.650390   165A      1.666815   166A      1.684590  
     167A      1.692377   168A      1.701889   169A      1.724190  
     170A      1.747567   171A      1.759738   172A      1.776424  
     173A      1.795953   174A      1.822390   175A      1.828712  
     176A      1.861776   177A      1.867641   178A      1.883029  
     179A      1.888547   180A      1.905776   181A      1.951539  
     182A      1.964757   183A      1.973674   184A      1.986518  
     185A      1.990718   186A      2.025789   187A      2.057406  
     188A      2.091035   189A      2.116724   190A      2.160349  
     191A      2.267565   192A      2.359341   193A      2.372716  
     194A      2.424053   195A      2.499156   196A      2.544241  
     197A      2.624734   198A      2.709103   199A      2.742112  
     200A      2.756591   201A      2.778390   202A      2.795046  
     203A      2.832946   204A      2.841854   205A      2.862447  
     206A      2.893288   207A      2.922819   208A      2.930005  
     209A      2.932959   210A      2.948737   211A      2.971015  
     212A      3.014432   213A      3.028146   214A      3.030721  
     215A      3.041896   216A      3.097318   217A      3.105472  
     218A      3.139108   219A      3.160175   220A      3.171825  
     221A      3.227083   222A      3.260594   223A      3.278511  
     224A      3.290747   225A      3.307618   226A      3.327766  
     227A      3.333229   228A      3.368491   229A      3.376487  
     230A      3.389142   231A      3.420159   232A      3.429737  
     233A      3.447989   234A      3.480977   235A      3.487015  
     236A      3.495308   237A      3.501625   238A      3.517419  
     239A      3.533876   240A      3.536431   241A      3.566460  
     242A      3.583038   243A      3.597358   244A      3.603240  
     245A      3.608240   246A      3.619050   247A      3.628184  
     248A      3.638235   249A      3.658875   250A      3.692091  
     251A      3.708747   252A      3.727214   253A      3.739163  
     254A      3.752015   255A      3.770945   256A      3.794679  
     257A      3.814817   258A      3.824093   259A      3.839353  
     260A      3.845780   261A      3.855580   262A      3.873176  
     263A      3.881372   264A      3.885626   265A      3.929575  
     266A      3.939699   267A      3.950099   268A      3.961793  
     269A      3.963160   270A      3.984870   271A      4.010113  
     272A      4.028201   273A      4.057728   274A      4.099606  
     275A      4.106812   276A      4.134060   277A      4.139693  
     278A      4.185589   279A      4.205779   280A      4.214219  
     281A      4.225919   282A      4.231125   283A      4.237272  
     284A      4.292879   285A      4.301898   286A      4.302489  
     287A      4.311486   288A      4.325192   289A      4.333602  
     290A      4.349770   291A      4.362228   292A      4.371501  
     293A      4.375539   294A      4.403657   295A      4.411699  
     296A      4.441954   297A      4.452973   298A      4.458339  
     299A      4.479740   300A      4.492645   301A      4.499387  
     302A      4.508269   303A      4.514651   304A      4.533800  
     305A      4.538000   306A      4.555112   307A      4.563458  
     308A      4.568288   309A      4.594167   310A      4.618775  
     311A      4.626836   312A      4.642208   313A      4.662709  
     314A      4.681969   315A      4.691388   316A      4.716139  
     317A      4.717515   318A      4.721308   319A      4.746933  
     320A      4.764899   321A      4.765847   322A      4.781708  
     323A      4.793382   324A      4.812533   325A      4.817457  
     326A      4.831775   327A      4.836800   328A      4.860607  
     329A      4.879965   330A      4.886674   331A      4.899187  
     332A      4.916024   333A      4.935220   334A      4.958568  
     335A      4.972858   336A      4.982121   337A      4.998774  
     338A      5.013904   339A      5.021013   340A      5.032554  
     341A      5.039204   342A      5.078528   343A      5.108639  
     344A      5.124299   345A      5.155366   346A      5.176398  
     347A      5.190698   348A      5.202395   349A      5.232636  
     350A      5.250444   351A      5.260496   352A      5.282609  
     353A      5.289903   354A      5.295366   355A      5.340871  
     356A      5.365314   357A      5.390934   358A      5.415951  
     359A      5.449201   360A      5.481112   361A      5.520802  
     362A      5.543338   363A      5.586671   364A      5.608601  
     365A      5.618795   366A      5.708537   367A      5.726306  
     368A      5.736382   369A      5.746037   370A      5.767062  
     371A      5.780688   372A      5.786568   373A      5.798536  
     374A      5.821557   375A      5.823950   376A      5.893122  
     377A      5.929371   378A      5.931945   379A      5.965422  
     380A      5.985145   381A      6.015290   382A      6.074329  
     383A      6.099533   384A      6.158053   385A      6.206711  
     386A      6.302994   387A      6.337090   388A      6.360703  
     389A      6.456508   390A      6.468214   391A      6.504623  
     392A      6.535974   393A      6.538338   394A      6.553243  
     395A      6.590906   396A      6.737252   397A      6.862574  
     398A      6.975325   399A      7.131551   400A      7.315371  
     401A      7.391361   402A      7.453966   403A      7.567494  
     404A      7.604047   405A      7.662586   406A      7.706406  
     407A      7.804783   408A      7.859365   409A      7.968831  
     410A      8.001670   411A      8.286571   412A      8.348754  
     413A      8.505486   414A      9.537930   415A      9.715515  
     416A      9.840600   417A      9.859858   418A     10.007974  
     419A     10.104313   420A     10.301448   421A     11.298055  
     422A     11.663008   423A     12.757553   424A     13.502273  
     425A     13.821133   426A     14.467244   427A     14.706316  
     428A     44.204828   429A     45.641164   430A     61.043248  

    Final Occupation by Irrep:
              A 
    DOCC [    13 ]

  @DF-RHF Final Energy:  -118.30800486935270

   => Energetics <=

    Nuclear Repulsion Energy =             82.8439950541484507
    One-Electron Energy =                -322.0427889873344611
    Two-Electron Energy =                 120.8907890638333100
    Total Energy =                       -118.3080048693527004

Computation Completed


Properties will be evaluated at   0.000000,   0.000000,   0.000000 [a0]

Properties computed using the SCF density matrix

  Nuclear Dipole Moment: [e a0]
     X:    90.7294      Y:     4.5058      Z:    -2.0664

  Electronic Dipole Moment: [e a0]
     X:   -90.7270      Y:    -4.4914      Z:     2.0370

  Dipole Moment: [e a0]
     X:     0.0023      Y:     0.0144      Z:    -0.0294     Total:     0.0328

  Dipole Moment: [D]
     X:     0.0059      Y:     0.0365      Z:    -0.0746     Total:     0.0833


*** tstop() called on r282 at Fri Sep 10 23:03:49 2021
Module time:
	user time   =      15.01 seconds =       0.25 minutes
	system time =       0.44 seconds =       0.01 minutes
	total time  =         16 seconds =       0.27 minutes
Total time:
	user time   =      68.48 seconds =       1.14 minutes
	system time =       1.77 seconds =       0.03 minutes
	total time  =         70 seconds =       1.17 minutes
  Constructing Basis Sets for SAPT...

   => Loading Basis Set <=

    Name: (JUN-CC-PVTZ AUX)
    Role: RIFIT
    Keyword: DF_BASIS_SAPT
    atoms 1-2, 10-12 entry C          line   132 file /home/r08543048/miniconda3/share/psi4/basis/jun-cc-pvtz-ri.gbs 
    atoms 3          entry O          line   244 file /home/r08543048/miniconda3/share/psi4/basis/jun-cc-pvtz-ri.gbs 
    atoms 4-9, 13-20 entry H          line    30 file /home/r08543048/miniconda3/share/psi4/basis/jun-cc-pvtz-ri.gbs 


  //>>>>>>>>>>>>>>>>>>>>>>>>>>>>>>>>>>>//
  //               SAPT0               //
  //<<<<<<<<<<<<<<<<<<<<<<<<<<<<<<<<<<<//


*** tstart() called on r282
*** at Fri Sep 10 23:03:49 2021

        SAPT0  
    Ed Hohenstein
     6 June 2009

      Orbital Information
  --------------------------
    NSO        =       430
    NMO        =       430
    NRI        =      1002
    NOCC A     =        13
    NOCC B     =        13
    FOCC A     =         0
    FOCC B     =         0
    NVIR A     =       417
    NVIR B     =       417

    Elst10,r            =    -0.002453307077 [Eh]
    Exch10              =     0.005418088521 [Eh]
    Exch10 (S^2)        =     0.005411189707 [Eh]

    Iter     Energy [mEh]          dE [mEh]         Residual      Time [s]
       1      -0.29150388       0.291503884       2.193112713             1
       2      -0.35362539       0.062121501       0.360546507             1
       3      -0.35279156      -0.000833824       0.116595782             2
       4      -0.35228586      -0.000505697       0.032407073             3
       5      -0.35234185       0.000055989       0.010818934             3
       6      -0.35238149       0.000039636       0.003091809             4
       7      -0.35238103      -0.000000462       0.000997708             4
       8      -0.35237710      -0.000003923       0.000221303             5
       9      -0.35237777       0.000000661       0.000049670             6
      10      -0.35237777       0.000000000       0.000015196             6
      11      -0.35237774      -0.000000028       0.000004114             7
      12      -0.35237774      -0.000000001       0.000001055             7
      13      -0.35237774       0.000000002       0.000000259             8

    CHF Iterations converged


    Iter     Energy [mEh]          dE [mEh]         Residual      Time [s]
       1      -0.85833556       0.858335555       4.313379209             1
       2      -0.98599107       0.127655515       1.400681129             1
       3      -1.00740827       0.021417197       0.312338765             2
       4      -1.00463745      -0.002770822       0.104518979             3
       5      -1.00342068      -0.001216765       0.016440425             3
       6      -1.00360938       0.000188698       0.004473058             4
       7      -1.00362422       0.000014841       0.001056722             4
       8      -1.00361539      -0.000008830       0.000224180             5
       9      -1.00361558       0.000000186       0.000051384             6
      10      -1.00361587       0.000000298       0.000010715             6
      11      -1.00361584      -0.000000033       0.000002012             7
      12      -1.00361584      -0.000000003       0.000000415             7

    CHF Iterations converged

    Ind20,r (A<-B)      =    -0.000352377739 [Eh]
    Ind20,r (B<-A)      =    -0.001003615838 [Eh]
    Ind20,r             =    -0.001355993577 [Eh]
    Exch-Ind20,r (A<-B) =     0.000291447516 [Eh]
    Exch-Ind20,r (B<-A) =     0.000593135518 [Eh]
    Exch-Ind20,r        =     0.000884583035 [Eh]
    Disp20              =    -0.006676900350 [Eh]
    Disp20 (SS)         =    -0.003338450175 [Eh]
    Disp20 (OS)         =    -0.003338450175 [Eh]
    Exch-Disp20         =     0.000581008078 [Eh]
    Exch-Disp20 (SS)    =     0.000376633915 [Eh]
    Exch-Disp20 (OS)    =     0.000204374163 [Eh]

    SAPT Results 
  --------------------------------------------------------------------------------------------------------
    Electrostatics                 -2.45330708 [mEh]      -1.53947343 [kcal/mol]      -6.44115684 [kJ/mol]
      Elst10,r                     -2.45330708 [mEh]      -1.53947343 [kcal/mol]      -6.44115684 [kJ/mol]

    Exchange                        5.41808852 [mEh]       3.39990188 [kcal/mol]      14.22518945 [kJ/mol]
      Exch10                        5.41808852 [mEh]       3.39990188 [kcal/mol]      14.22518945 [kJ/mol]
      Exch10(S^2)                   5.41118971 [mEh]       3.39557281 [kcal/mol]      14.20707662 [kJ/mol]

    Induction                      -0.85244459 [mEh]      -0.53491706 [kcal/mol]      -2.23809297 [kJ/mol]
      Ind20,r                      -1.35599358 [mEh]      -0.85089882 [kcal/mol]      -3.56016065 [kJ/mol]
      Exch-Ind20,r                  0.88458303 [mEh]       0.55508423 [kcal/mol]       2.32247244 [kJ/mol]
      delta HF,r (2)               -0.38103405 [mEh]      -0.23910248 [kcal/mol]      -1.00040476 [kJ/mol]

    Dispersion                     -6.09589227 [mEh]      -3.82523015 [kcal/mol]     -16.00476296 [kJ/mol]
      Disp20                       -6.67690035 [mEh]      -4.18981823 [kcal/mol]     -17.53019945 [kJ/mol]
      Exch-Disp20                   0.58100808 [mEh]       0.36458807 [kcal/mol]       1.52543650 [kJ/mol]
      Disp20 (SS)                  -3.33845018 [mEh]      -2.09490911 [kcal/mol]      -8.76509973 [kJ/mol]
      Disp20 (OS)                  -3.33845018 [mEh]      -2.09490911 [kcal/mol]      -8.76509973 [kJ/mol]
      Exch-Disp20 (SS)              0.37663391 [mEh]       0.23634135 [kcal/mol]       0.98885221 [kJ/mol]
      Exch-Disp20 (OS)              0.20437416 [mEh]       0.12824672 [kcal/mol]       0.53658429 [kJ/mol]

  Total HF                          2.11233685 [mEh]       1.32551139 [kcal/mol]       5.54593964 [kJ/mol]
  Total SAPT0                      -3.98355542 [mEh]      -2.49971877 [kcal/mol]     -10.45882332 [kJ/mol]

  Special recipe for scaled SAPT0 (see Manual):
    Electrostatics sSAPT0          -2.45330708 [mEh]      -1.53947343 [kcal/mol]      -6.44115684 [kJ/mol]
    Exchange sSAPT0                 5.41808852 [mEh]       3.39990188 [kcal/mol]      14.22518945 [kJ/mol]
    Induction sSAPT0               -0.84905697 [mEh]      -0.53279129 [kcal/mol]      -2.22919877 [kJ/mol]
    Dispersion sSAPT0              -6.09366723 [mEh]      -3.82383392 [kcal/mol]     -15.99892110 [kJ/mol]
  Total sSAPT0                     -3.97794275 [mEh]      -2.49619676 [kcal/mol]     -10.44408726 [kJ/mol]
  --------------------------------------------------------------------------------------------------------

*** tstop() called on r282 at Fri Sep 10 23:04:56 2021
Module time:
	user time   =      55.94 seconds =       0.93 minutes
	system time =      10.58 seconds =       0.18 minutes
	total time  =         67 seconds =       1.12 minutes
Total time:
	user time   =     124.55 seconds =       2.08 minutes
	system time =      12.35 seconds =       0.21 minutes
	total time  =        137 seconds =       2.28 minutes

    Psi4 stopped on: Friday, 10 September 2021 11:04PM
    Psi4 wall time for execution: 0:02:17.30

*** Psi4 exiting successfully. Buy a developer a beer!
