
    -----------------------------------------------------------------------
          Psi4: An Open-Source Ab Initio Electronic Structure Package
                               Psi4 1.3.2 release

                         Git: Rev {HEAD} ecbda83 


    R. M. Parrish, L. A. Burns, D. G. A. Smith, A. C. Simmonett,
    A. E. DePrince III, E. G. Hohenstein, U. Bozkaya, A. Yu. Sokolov,
    R. Di Remigio, R. M. Richard, J. F. Gonthier, A. M. James,
    H. R. McAlexander, A. Kumar, M. Saitow, X. Wang, B. P. Pritchard,
    P. Verma, H. F. Schaefer III, K. Patkowski, R. A. King, E. F. Valeev,
    F. A. Evangelista, J. M. Turney, T. D. Crawford, and C. D. Sherrill,
    J. Chem. Theory Comput. 13(7) pp 3185--3197 (2017).
    (doi: 10.1021/acs.jctc.7b00174)


                         Additional Contributions by
    P. Kraus, H. Kruse, M. H. Lechner, M. C. Schieber, R. A. Shaw,
    A. Alenaizan, R. Galvelis, Z. L. Glick, S. Lehtola, and J. P. Misiewicz

    -----------------------------------------------------------------------


    Psi4 started on: Friday, 10 September 2021 12:55PM

    Process ID: 56652
    Host:       r282
    PSIDATADIR: /home/r08543048/miniconda3/share/psi4
    Memory:     500.0 MiB
    Threads:    1
    
  ==> Input File <==

--------------------------------------------------------------------------
# Any line starting with the # character is a comment line
#! Sample  computation

memory 22 gb

molecule Dimer {
0 1
 H -1.151055   -1.942351    1.059607
 C -2.105049    0.037537    0.784360
 C -1.440301   -1.211255    0.281593
 O -1.214112   -1.444894   -0.890470
 H -1.425352    0.486726    1.516001
 C -2.479286    1.014089   -0.315773
 H -1.596184    1.327710   -0.869152
 H -3.162987    0.550726   -1.024514
 H -2.957606    1.897963    0.102159
 H -2.979173   -0.279463    1.362613





    
    
    
 --
0 1
 C   2.270362   -1.565080   -0.004792
 H   3.139186   -1.491555   -0.660188
 H   1.443851   -1.969684   -0.589887
 H   2.508799   -2.276003    0.786344
 C   1.909988   -0.196318    0.559181
 H   1.060315   -0.288635    1.243546
 H   2.738705    0.191293    1.158653
 C   1.566777    0.811181   -0.530969
 H   0.739528    0.420456   -1.129495
 H   2.420050    0.903823   -1.208353
 C   1.208449    2.181205    0.031485
 H   2.040524    2.595699    0.602436
 H   0.958789    2.889254   -0.758701
 H   0.349877    2.115042    0.702172





units angstrom

no_reorient
symmetry c1
}

set globals{
  basis jun-cc-pvtz
}

energy('sapt0')


--------------------------------------------------------------------------

  Memory set to  20.489 GiB by Python driver.

  //>>>>>>>>>>>>>>>>>>>>>>>>>>>>>>>>>>>//
  //              Dimer HF             //
  //<<<<<<<<<<<<<<<<<<<<<<<<<<<<<<<<<<<//


*** tstart() called on r282
*** at Fri Sep 10 12:55:07 2021

   => Loading Basis Set <=

    Name: JUN-CC-PVTZ
    Role: ORBITAL
    Keyword: BASIS
    atoms 1, 5, 7-10, 12-14, 16-17, 19-20, 22-24 entry H          line    36 file /home/r08543048/miniconda3/share/psi4/basis/jun-cc-pvtz.gbs 
    atoms 2-3, 6, 11, 15, 18, 21                 entry C          line   217 file /home/r08543048/miniconda3/share/psi4/basis/jun-cc-pvtz.gbs 
    atoms 4                                      entry O          line   305 file /home/r08543048/miniconda3/share/psi4/basis/jun-cc-pvtz.gbs 


         ---------------------------------------------------------
                                   SCF
               by Justin Turney, Rob Parrish, Andy Simmonett
                          and Daniel G. A. Smith
                              RHF Reference
                        1 Threads,  20980 MiB Core
         ---------------------------------------------------------

  ==> Geometry <==

    Molecular point group: c1
    Full point group: C1

    Geometry (in Angstrom), charge = 0, multiplicity = 1:

       Center              X                  Y                   Z               Mass       
    ------------   -----------------  -----------------  -----------------  -----------------
         H           -1.115843402280    -1.898573081676     1.079162491604     1.007825032230
         C           -2.069837402280     0.081314918324     0.803915491604    12.000000000000
         C           -1.405089402280    -1.167477081676     0.301148491604    12.000000000000
         O           -1.178900402280    -1.401116081676    -0.870914508396    15.994914619570
         H           -1.390140402280     0.530503918324     1.535556491604     1.007825032230
         C           -2.444074402280     1.057866918324    -0.296217508396    12.000000000000
         H           -1.560972402280     1.371487918324    -0.849596508396     1.007825032230
         H           -3.127775402280     0.594503918324    -1.004958508396     1.007825032230
         H           -2.922394402280     1.941740918324     0.121714491604     1.007825032230
         H           -2.943961402280    -0.235685081676     1.382168491604     1.007825032230
         C            2.305573597720    -1.521302081676     0.014763491604    12.000000000000
         H            3.174397597720    -1.447777081676    -0.640632508396     1.007825032230
         H            1.479062597720    -1.925906081676    -0.570331508396     1.007825032230
         H            2.544010597720    -2.232225081676     0.805899491604     1.007825032230
         C            1.945199597720    -0.152540081676     0.578736491604    12.000000000000
         H            1.095526597720    -0.244857081676     1.263101491604     1.007825032230
         H            2.773916597720     0.235070918324     1.178208491604     1.007825032230
         C            1.601988597720     0.854958918324    -0.511413508396    12.000000000000
         H            0.774739597720     0.464233918324    -1.109939508396     1.007825032230
         H            2.455261597720     0.947600918324    -1.188797508396     1.007825032230
         C            1.243660597720     2.224982918324     0.051040491604    12.000000000000
         H            2.075735597720     2.639476918324     0.621991491604     1.007825032230
         H            0.994000597720     2.933031918324    -0.739145508396     1.007825032230
         H            0.385088597720     2.158819918324     0.721727491604     1.007825032230

  Running in c1 symmetry.

  Rotational constants: A =      0.06891  B =      0.03782  C =      0.02807 [cm^-1]
  Rotational constants: A =   2065.94778  B =   1133.85808  C =    841.52159 [MHz]
  Nuclear repulsion =  390.299133752369869

  Charge       = 0
  Multiplicity = 1
  Electrons    = 66
  Nalpha       = 33
  Nbeta        = 33

  ==> Algorithm <==

  SCF Algorithm Type is DF.
  DIIS enabled.
  MOM disabled.
  Fractional occupation disabled.
  Guess Type is SAD.
  Energy threshold   = 1.00e-08
  Density threshold  = 1.00e-08
  Integral threshold = 0.00e+00

  ==> Primary Basis <==

  Basis Set: JUN-CC-PVTZ
    Blend: JUN-CC-PVTZ
    Number of shells: 200
    Number of basis function: 536
    Number of Cartesian functions: 600
    Spherical Harmonics?: true
    Max angular momentum: 3

   => Loading Basis Set <=

    Name: (JUN-CC-PVTZ AUX)
    Role: JKFIT
    Keyword: DF_BASIS_SCF
    atoms 1, 5, 7-10, 12-14, 16-17, 19-20, 22-24 entry H          line    70 file /home/r08543048/miniconda3/share/psi4/basis/jun-cc-pvtz-jkfit.gbs 
    atoms 2-3, 6, 11, 15, 18, 21                 entry C          line   152 file /home/r08543048/miniconda3/share/psi4/basis/jun-cc-pvtz-jkfit.gbs 
    atoms 4                                      entry O          line   272 file /home/r08543048/miniconda3/share/psi4/basis/jun-cc-pvtz-jkfit.gbs 

  ==> Pre-Iterations <==

   -------------------------------------------------------
    Irrep   Nso     Nmo     Nalpha   Nbeta   Ndocc  Nsocc
   -------------------------------------------------------
     A        536     536       0       0       0       0
   -------------------------------------------------------
    Total     536     536      33      33      33       0
   -------------------------------------------------------

  ==> Integral Setup <==

  ==> DiskDFJK: Density-Fitted J/K Matrices <==

    J tasked:                  Yes
    K tasked:                  Yes
    wK tasked:                  No
    OpenMP threads:              1
    Integrals threads:           1
    Memory [MiB]:            15735
    Algorithm:                Core
    Integral Cache:           SAVE
    Schwarz Cutoff:          1E-12
    Fitting Condition:       1E-10

   => Auxiliary Basis Set <=

  Basis Set: (JUN-CC-PVTZ AUX)
    Blend: JUN-CC-PVTZ-JKFIT
    Number of shells: 392
    Number of basis function: 1240
    Number of Cartesian functions: 1488
    Spherical Harmonics?: true
    Max angular momentum: 4

  Minimum eigenvalue in the overlap matrix is 4.3016427734E-05.
  Using Symmetric Orthogonalization.

  SCF Guess: Superposition of Atomic Densities via on-the-fly atomic UHF.

  ==> Iterations <==

                           Total Energy        Delta E     RMS |[F,P]|

   @DF-RHF iter SAD:  -348.14652082873044   -3.48147e+02   0.00000e+00 
   @DF-RHF iter   1:  -349.00909747325551   -8.62577e-01   1.48084e-03 DIIS
   @DF-RHF iter   2:  -349.28961625432987   -2.80519e-01   8.15508e-04 DIIS
   @DF-RHF iter   3:  -349.37025662691951   -8.06404e-02   1.73478e-04 DIIS
   @DF-RHF iter   4:  -349.37558751529701   -5.33089e-03   8.22975e-05 DIIS
   @DF-RHF iter   5:  -349.37665643238813   -1.06892e-03   1.22676e-05 DIIS
   @DF-RHF iter   6:  -349.37670876638686   -5.23340e-05   4.86244e-06 DIIS
   @DF-RHF iter   7:  -349.37671560816983   -6.84178e-06   1.95391e-06 DIIS
   @DF-RHF iter   8:  -349.37671706499816   -1.45683e-06   7.45341e-07 DIIS
   @DF-RHF iter   9:  -349.37671731388775   -2.48890e-07   1.64189e-07 DIIS
   @DF-RHF iter  10:  -349.37671732639996   -1.25122e-08   4.91654e-08 DIIS
   @DF-RHF iter  11:  -349.37671732716819   -7.68239e-10   1.48365e-08 DIIS
   @DF-RHF iter  12:  -349.37671732727495   -1.06752e-10   5.84109e-09 DIIS
  Energy and wave function converged.


  ==> Post-Iterations <==

    Orbital Energies [Eh]
    ---------------------

    Doubly Occupied:                                                      

       1A    -20.558605     2A    -11.334477     3A    -11.245784  
       4A    -11.220975     5A    -11.213647     6A    -11.209491  
       7A    -11.208721     8A    -11.201510     9A     -1.390478  
      10A     -1.070610    11A     -1.064559    12A     -0.978772  
      13A     -0.913639    14A     -0.858578    15A     -0.786448  
      16A     -0.775533    17A     -0.683100    18A     -0.650266  
      19A     -0.630125    20A     -0.624119    21A     -0.582962  
      22A     -0.574037    23A     -0.567068    24A     -0.542542  
      25A     -0.527587    26A     -0.521294    27A     -0.512258  
      28A     -0.494503    29A     -0.492061    30A     -0.467418  
      31A     -0.457920    32A     -0.454084    33A     -0.424384  

    Virtual:                                                              

      34A      0.044022    35A      0.050202    36A      0.056783  
      37A      0.056817    38A      0.069028    39A      0.072325  
      40A      0.078017    41A      0.084728    42A      0.092289  
      43A      0.104566    44A      0.107669    45A      0.112136  
      46A      0.116708    47A      0.118529    48A      0.120733  
      49A      0.129848    50A      0.139203    51A      0.144433  
      52A      0.145051    53A      0.153355    54A      0.156063  
      55A      0.167845    56A      0.180430    57A      0.184395  
      58A      0.188710    59A      0.198843    60A      0.210915  
      61A      0.217939    62A      0.220989    63A      0.232906  
      64A      0.250342    65A      0.258452    66A      0.266271  
      67A      0.274377    68A      0.279331    69A      0.281799  
      70A      0.287055    71A      0.297421    72A      0.304318  
      73A      0.309570    74A      0.313459    75A      0.315204  
      76A      0.319572    77A      0.325674    78A      0.327336  
      79A      0.334414    80A      0.339661    81A      0.341392  
      82A      0.348349    83A      0.351913    84A      0.358129  
      85A      0.363426    86A      0.372249    87A      0.377875  
      88A      0.379372    89A      0.393750    90A      0.396223  
      91A      0.399938    92A      0.402720    93A      0.409793  
      94A      0.427652    95A      0.432127    96A      0.437556  
      97A      0.445611    98A      0.450663    99A      0.462184  
     100A      0.465718   101A      0.476819   102A      0.478544  
     103A      0.491936   104A      0.494651   105A      0.505072  
     106A      0.514311   107A      0.520752   108A      0.528602  
     109A      0.533768   110A      0.534344   111A      0.541324  
     112A      0.546924   113A      0.567968   114A      0.574220  
     115A      0.584285   116A      0.594831   117A      0.596796  
     118A      0.599474   119A      0.609779   120A      0.615926  
     121A      0.618505   122A      0.631091   123A      0.659259  
     124A      0.660965   125A      0.666667   126A      0.678851  
     127A      0.690600   128A      0.704643   129A      0.717718  
     130A      0.723796   131A      0.733543   132A      0.744008  
     133A      0.747028   134A      0.753749   135A      0.763405  
     136A      0.766000   137A      0.773994   138A      0.784406  
     139A      0.797615   140A      0.805660   141A      0.812112  
     142A      0.818060   143A      0.828903   144A      0.833727  
     145A      0.837185   146A      0.847193   147A      0.851114  
     148A      0.854316   149A      0.860656   150A      0.869817  
     151A      0.870556   152A      0.882386   153A      0.895225  
     154A      0.902016   155A      0.910631   156A      0.921887  
     157A      0.928615   158A      0.928946   159A      0.937056  
     160A      0.946385   161A      0.964227   162A      0.988189  
     163A      0.994158   164A      1.004047   165A      1.021290  
     166A      1.025397   167A      1.030524   168A      1.046736  
     169A      1.064374   170A      1.072149   171A      1.082836  
     172A      1.089914   173A      1.109401   174A      1.130410  
     175A      1.139448   176A      1.150496   177A      1.174780  
     178A      1.186968   179A      1.195714   180A      1.208224  
     181A      1.223943   182A      1.226483   183A      1.243791  
     184A      1.253507   185A      1.265123   186A      1.280107  
     187A      1.288915   188A      1.300392   189A      1.311579  
     190A      1.322767   191A      1.337744   192A      1.355089  
     193A      1.360236   194A      1.369730   195A      1.371975  
     196A      1.377299   197A      1.394195   198A      1.402611  
     199A      1.406936   200A      1.419990   201A      1.425004  
     202A      1.445989   203A      1.458561   204A      1.466561  
     205A      1.469750   206A      1.483199   207A      1.492898  
     208A      1.499715   209A      1.506974   210A      1.510898  
     211A      1.513356   212A      1.525655   213A      1.532937  
     214A      1.545537   215A      1.559938   216A      1.578908  
     217A      1.588267   218A      1.598033   219A      1.600247  
     220A      1.607205   221A      1.616490   222A      1.623267  
     223A      1.628934   224A      1.636380   225A      1.641876  
     226A      1.648133   227A      1.652979   228A      1.668423  
     229A      1.688548   230A      1.707581   231A      1.716719  
     232A      1.724383   233A      1.736739   234A      1.747457  
     235A      1.760576   236A      1.772825   237A      1.780118  
     238A      1.796000   239A      1.802219   240A      1.817694  
     241A      1.826092   242A      1.853050   243A      1.877571  
     244A      1.879806   245A      1.902083   246A      1.917766  
     247A      1.937680   248A      1.941157   249A      1.946532  
     250A      1.953452   251A      1.963379   252A      1.980909  
     253A      2.016015   254A      2.018257   255A      2.050900  
     256A      2.078339   257A      2.128862   258A      2.179089  
     259A      2.360253   260A      2.420254   261A      2.429595  
     262A      2.471698   263A      2.566703   264A      2.717593  
     265A      2.722074   266A      2.743921   267A      2.755215  
     268A      2.766404   269A      2.797927   270A      2.829105  
     271A      2.835603   272A      2.851425   273A      2.863521  
     274A      2.875142   275A      2.881489   276A      2.899266  
     277A      2.911593   278A      2.921801   279A      2.925436  
     280A      2.942859   281A      2.954078   282A      2.961941  
     283A      2.974139   284A      2.992422   285A      3.001383  
     286A      3.003198   287A      3.023753   288A      3.039056  
     289A      3.067917   290A      3.091206   291A      3.099137  
     292A      3.107251   293A      3.129515   294A      3.131789  
     295A      3.140415   296A      3.145056   297A      3.153518  
     298A      3.164390   299A      3.179357   300A      3.185307  
     301A      3.189158   302A      3.221934   303A      3.239553  
     304A      3.253329   305A      3.271572   306A      3.279443  
     307A      3.302931   308A      3.311661   309A      3.315778  
     310A      3.326120   311A      3.335040   312A      3.337432  
     313A      3.353593   314A      3.361718   315A      3.368384  
     316A      3.390162   317A      3.398338   318A      3.400942  
     319A      3.413834   320A      3.416092   321A      3.417879  
     322A      3.426889   323A      3.437009   324A      3.454846  
     325A      3.459015   326A      3.470499   327A      3.477428  
     328A      3.486957   329A      3.493817   330A      3.506790  
     331A      3.513341   332A      3.520831   333A      3.523612  
     334A      3.533601   335A      3.551736   336A      3.560274  
     337A      3.573570   338A      3.578043   339A      3.588153  
     340A      3.590996   341A      3.608642   342A      3.618903  
     343A      3.622008   344A      3.639349   345A      3.648359  
     346A      3.651360   347A      3.659620   348A      3.682683  
     349A      3.686695   350A      3.708557   351A      3.713704  
     352A      3.724739   353A      3.740570   354A      3.749273  
     355A      3.758999   356A      3.786395   357A      3.797560  
     358A      3.819444   359A      3.828459   360A      3.838250  
     361A      3.853503   362A      3.858308   363A      3.873566  
     364A      3.880663   365A      3.887983   366A      3.890813  
     367A      3.905699   368A      3.935271   369A      3.947300  
     370A      3.953677   371A      3.961754   372A      3.971748  
     373A      3.987970   374A      3.993611   375A      3.995827  
     376A      4.010675   377A      4.027385   378A      4.036818  
     379A      4.074672   380A      4.100025   381A      4.118712  
     382A      4.147163   383A      4.149446   384A      4.165923  
     385A      4.184887   386A      4.207745   387A      4.214777  
     388A      4.216925   389A      4.229546   390A      4.243007  
     391A      4.253080   392A      4.266111   393A      4.279001  
     394A      4.291359   395A      4.305335   396A      4.310812  
     397A      4.316139   398A      4.323738   399A      4.336020  
     400A      4.348603   401A      4.351818   402A      4.360139  
     403A      4.381753   404A      4.390745   405A      4.399460  
     406A      4.401363   407A      4.424355   408A      4.437809  
     409A      4.455137   410A      4.459687   411A      4.461607  
     412A      4.473332   413A      4.487811   414A      4.506569  
     415A      4.515241   416A      4.520502   417A      4.533205  
     418A      4.546006   419A      4.550992   420A      4.558980  
     421A      4.578326   422A      4.590151   423A      4.596258  
     424A      4.618342   425A      4.632421   426A      4.641846  
     427A      4.650109   428A      4.662790   429A      4.669932  
     430A      4.676122   431A      4.694853   432A      4.721933  
     433A      4.722226   434A      4.736767   435A      4.751561  
     436A      4.755742   437A      4.818605   438A      4.831960  
     439A      4.840352   440A      4.851793   441A      4.869536  
     442A      4.904685   443A      4.920083   444A      4.925117  
     445A      4.945001   446A      4.953329   447A      4.980125  
     448A      5.013524   449A      5.031598   450A      5.040018  
     451A      5.076127   452A      5.084907   453A      5.122040  
     454A      5.130121   455A      5.137939   456A      5.162960  
     457A      5.167601   458A      5.247532   459A      5.261374  
     460A      5.267116   461A      5.271132   462A      5.285732  
     463A      5.288820   464A      5.301174   465A      5.315041  
     466A      5.319518   467A      5.326876   468A      5.346860  
     469A      5.359652   470A      5.367951   471A      5.370343  
     472A      5.381437   473A      5.434260   474A      5.443497  
     475A      5.450490   476A      5.465522   477A      5.478413  
     478A      5.517965   479A      5.549705   480A      5.561361  
     481A      5.628334   482A      5.632638   483A      5.656169  
     484A      5.675333   485A      5.677648   486A      5.693992  
     487A      5.716562   488A      5.744831   489A      5.753761  
     490A      5.761260   491A      5.766084   492A      5.786517  
     493A      5.803247   494A      5.814671   495A      5.828931  
     496A      5.851829   497A      5.864854   498A      5.904987  
     499A      5.910948   500A      5.920135   501A      5.931912  
     502A      5.958323   503A      5.972457   504A      5.981048  
     505A      6.000439   506A      6.018322   507A      6.081973  
     508A      6.130465   509A      6.188348   510A      6.202840  
     511A      6.323017   512A      6.490271   513A      6.501270  
     514A      6.521763   515A      6.529461   516A      6.549731  
     517A      6.562860   518A      6.577022   519A      6.615276  
     520A      6.651821   521A      6.802105   522A      6.972198  
     523A      7.278003   524A      7.295454   525A      7.318332  
     526A      7.458814   527A      7.629554   528A      7.731306  
     529A     12.576325   530A     13.741849   531A     14.034533  
     532A     14.266759   533A     14.363096   534A     14.537788  
     535A     14.651127   536A     14.814688  

    Final Occupation by Irrep:
              A 
    DOCC [    33 ]

  @DF-RHF Final Energy:  -349.37671732727495

   => Energetics <=

    Nuclear Repulsion Energy =            390.2991337523698689
    One-Electron Energy =               -1246.8765899678271580
    Two-Electron Energy =                 507.2007388881822862
    Total Energy =                       -349.3767173272749460

Computation Completed


Properties will be evaluated at   0.000000,   0.000000,   0.000000 [a0]

Properties computed using the SCF density matrix

  Nuclear Dipole Moment: [e a0]
     X:     4.3917      Y:     5.4601      Z:     2.4390

  Electronic Dipole Moment: [e a0]
     X:    -4.7232      Y:    -5.0730      Z:    -1.4369

  Dipole Moment: [e a0]
     X:    -0.3315      Y:     0.3871      Z:     1.0021     Total:     1.1242

  Dipole Moment: [D]
     X:    -0.8425      Y:     0.9838      Z:     2.5471     Total:     2.8575


*** tstop() called on r282 at Fri Sep 10 12:56:33 2021
Module time:
	user time   =      83.55 seconds =       1.39 minutes
	system time =       1.77 seconds =       0.03 minutes
	total time  =         86 seconds =       1.43 minutes
Total time:
	user time   =      83.55 seconds =       1.39 minutes
	system time =       1.77 seconds =       0.03 minutes
	total time  =         86 seconds =       1.43 minutes

  //>>>>>>>>>>>>>>>>>>>>>>>>>>>>>>>>>>>//
  //            Monomer A HF           //
  //<<<<<<<<<<<<<<<<<<<<<<<<<<<<<<<<<<<//


*** tstart() called on r282
*** at Fri Sep 10 12:56:33 2021

   => Loading Basis Set <=

    Name: JUN-CC-PVTZ
    Role: ORBITAL
    Keyword: BASIS
    atoms 1, 5, 7-10, 12-14, 16-17, 19-20, 22-24 entry H          line    36 file /home/r08543048/miniconda3/share/psi4/basis/jun-cc-pvtz.gbs 
    atoms 2-3, 6, 11, 15, 18, 21                 entry C          line   217 file /home/r08543048/miniconda3/share/psi4/basis/jun-cc-pvtz.gbs 
    atoms 4                                      entry O          line   305 file /home/r08543048/miniconda3/share/psi4/basis/jun-cc-pvtz.gbs 


         ---------------------------------------------------------
                                   SCF
               by Justin Turney, Rob Parrish, Andy Simmonett
                          and Daniel G. A. Smith
                              RHF Reference
                        1 Threads,  20980 MiB Core
         ---------------------------------------------------------

  ==> Geometry <==

    Molecular point group: c1
    Full point group: C1

    Geometry (in Angstrom), charge = 0, multiplicity = 1:

       Center              X                  Y                   Z               Mass       
    ------------   -----------------  -----------------  -----------------  -----------------
         H           -1.115843402280    -1.898573081676     1.079162491604     1.007825032230
         C           -2.069837402280     0.081314918324     0.803915491604    12.000000000000
         C           -1.405089402280    -1.167477081676     0.301148491604    12.000000000000
         O           -1.178900402280    -1.401116081676    -0.870914508396    15.994914619570
         H           -1.390140402280     0.530503918324     1.535556491604     1.007825032230
         C           -2.444074402280     1.057866918324    -0.296217508396    12.000000000000
         H           -1.560972402280     1.371487918324    -0.849596508396     1.007825032230
         H           -3.127775402280     0.594503918324    -1.004958508396     1.007825032230
         H           -2.922394402280     1.941740918324     0.121714491604     1.007825032230
         H           -2.943961402280    -0.235685081676     1.382168491604     1.007825032230
      Gh(C)           2.305573597720    -1.521302081676     0.014763491604    12.000000000000
      Gh(H)           3.174397597720    -1.447777081676    -0.640632508396     1.007825032230
      Gh(H)           1.479062597720    -1.925906081676    -0.570331508396     1.007825032230
      Gh(H)           2.544010597720    -2.232225081676     0.805899491604     1.007825032230
      Gh(C)           1.945199597720    -0.152540081676     0.578736491604    12.000000000000
      Gh(H)           1.095526597720    -0.244857081676     1.263101491604     1.007825032230
      Gh(H)           2.773916597720     0.235070918324     1.178208491604     1.007825032230
      Gh(C)           1.601988597720     0.854958918324    -0.511413508396    12.000000000000
      Gh(H)           0.774739597720     0.464233918324    -1.109939508396     1.007825032230
      Gh(H)           2.455261597720     0.947600918324    -1.188797508396     1.007825032230
      Gh(C)           1.243660597720     2.224982918324     0.051040491604    12.000000000000
      Gh(H)           2.075735597720     2.639476918324     0.621991491604     1.007825032230
      Gh(H)           0.994000597720     2.933031918324    -0.739145508396     1.007825032230
      Gh(H)           0.385088597720     2.158819918324     0.721727491604     1.007825032230

  Running in c1 symmetry.

  Rotational constants: A =      0.06891  B =      0.03782  C =      0.02807 [cm^-1]
  Rotational constants: A =   2065.94778  B =   1133.85808  C =    841.52159 [MHz]
  Nuclear repulsion =  118.672883727443335

  Charge       = 0
  Multiplicity = 1
  Electrons    = 32
  Nalpha       = 16
  Nbeta        = 16

  ==> Algorithm <==

  SCF Algorithm Type is DF.
  DIIS enabled.
  MOM disabled.
  Fractional occupation disabled.
  Guess Type is SAD.
  Energy threshold   = 1.00e-08
  Density threshold  = 1.00e-08
  Integral threshold = 0.00e+00

  ==> Primary Basis <==

  Basis Set: JUN-CC-PVTZ
    Blend: JUN-CC-PVTZ
    Number of shells: 200
    Number of basis function: 536
    Number of Cartesian functions: 600
    Spherical Harmonics?: true
    Max angular momentum: 3

   => Loading Basis Set <=

    Name: (JUN-CC-PVTZ AUX)
    Role: JKFIT
    Keyword: DF_BASIS_SCF
    atoms 1, 5, 7-10, 12-14, 16-17, 19-20, 22-24 entry H          line    70 file /home/r08543048/miniconda3/share/psi4/basis/jun-cc-pvtz-jkfit.gbs 
    atoms 2-3, 6, 11, 15, 18, 21                 entry C          line   152 file /home/r08543048/miniconda3/share/psi4/basis/jun-cc-pvtz-jkfit.gbs 
    atoms 4                                      entry O          line   272 file /home/r08543048/miniconda3/share/psi4/basis/jun-cc-pvtz-jkfit.gbs 

  ==> Pre-Iterations <==

   -------------------------------------------------------
    Irrep   Nso     Nmo     Nalpha   Nbeta   Ndocc  Nsocc
   -------------------------------------------------------
     A        536     536       0       0       0       0
   -------------------------------------------------------
    Total     536     536      16      16      16       0
   -------------------------------------------------------

  ==> Integral Setup <==

  ==> DiskDFJK: Density-Fitted J/K Matrices <==

    J tasked:                  Yes
    K tasked:                  Yes
    wK tasked:                  No
    OpenMP threads:              1
    Integrals threads:           1
    Memory [MiB]:            15735
    Algorithm:                Core
    Integral Cache:           LOAD
    Schwarz Cutoff:          1E-12
    Fitting Condition:       1E-10

   => Auxiliary Basis Set <=

  Basis Set: (JUN-CC-PVTZ AUX)
    Blend: JUN-CC-PVTZ-JKFIT
    Number of shells: 392
    Number of basis function: 1240
    Number of Cartesian functions: 1488
    Spherical Harmonics?: true
    Max angular momentum: 4

  Minimum eigenvalue in the overlap matrix is 4.3016427734E-05.
  Using Symmetric Orthogonalization.

  SCF Guess: Superposition of Atomic Densities via on-the-fly atomic UHF.

  ==> Iterations <==

                           Total Energy        Delta E     RMS |[F,P]|

   @DF-RHF iter SAD:  -191.17679961366761   -1.91177e+02   0.00000e+00 
   @DF-RHF iter   1:  -191.85940480183751   -6.82605e-01   1.03725e-03 DIIS
   @DF-RHF iter   2:  -191.97474952047290   -1.15345e-01   6.64975e-04 DIIS
   @DF-RHF iter   3:  -192.02099655289686   -4.62470e-02   1.22838e-04 DIIS
   @DF-RHF iter   4:  -192.02377704112538   -2.78049e-03   5.23531e-05 DIIS
   @DF-RHF iter   5:  -192.02432475309016   -5.47712e-04   9.46889e-06 DIIS
   @DF-RHF iter   6:  -192.02436285130889   -3.80982e-05   3.60046e-06 DIIS
   @DF-RHF iter   7:  -192.02436804662432   -5.19532e-06   1.55385e-06 DIIS
   @DF-RHF iter   8:  -192.02436892107940   -8.74455e-07   4.88318e-07 DIIS
   @DF-RHF iter   9:  -192.02436902653528   -1.05456e-07   9.87008e-08 DIIS
   @DF-RHF iter  10:  -192.02436903066365   -4.12837e-09   2.05885e-08 DIIS
   @DF-RHF iter  11:  -192.02436903080320   -1.39551e-10   4.27489e-09 DIIS
  Energy and wave function converged.


  ==> Post-Iterations <==

    Orbital Energies [Eh]
    ---------------------

    Doubly Occupied:                                                      

       1A    -20.557948     2A    -11.333077     3A    -11.245509  
       4A    -11.221153     5A     -1.388542     6A     -1.064314  
       7A     -0.912905     8A     -0.774379     9A     -0.681352  
      10A     -0.635955    11A     -0.627613    12A     -0.542018  
      13A     -0.527557    14A     -0.521140    15A     -0.491119  
      16A     -0.423256  

    Virtual:                                                              

      17A      0.029663    18A      0.043359    19A      0.047329  
      20A      0.053760    21A      0.065161    22A      0.068808  
      23A      0.073794    24A      0.081915    25A      0.087038  
      26A      0.100610    27A      0.103159    28A      0.104196  
      29A      0.111862    30A      0.116896    31A      0.118332  
      32A      0.120290    33A      0.130012    34A      0.135599  
      35A      0.141892    36A      0.146430    37A      0.147875  
      38A      0.153275    39A      0.165058    40A      0.168809  
      41A      0.173692    42A      0.180450    43A      0.184351  
      44A      0.198305    45A      0.203904    46A      0.217673  
      47A      0.241154    48A      0.248199    49A      0.258497  
      50A      0.268218    51A      0.274079    52A      0.279197  
      53A      0.285154    54A      0.290006    55A      0.292161  
      56A      0.300208    57A      0.302397    58A      0.310569  
      59A      0.316911    60A      0.325881    61A      0.327395  
      62A      0.332315    63A      0.337859    64A      0.349499  
      65A      0.352510    66A      0.354007    67A      0.365748  
      68A      0.368447    69A      0.371399    70A      0.379416  
      71A      0.382384    72A      0.385614    73A      0.392841  
      74A      0.405339    75A      0.410107    76A      0.415192  
      77A      0.421427    78A      0.434399    79A      0.443091  
      80A      0.450912    81A      0.466840    82A      0.468601  
      83A      0.478090    84A      0.479998    85A      0.489695  
      86A      0.493465    87A      0.505209    88A      0.513164  
      89A      0.519771    90A      0.524566    91A      0.537650  
      92A      0.541976    93A      0.542954    94A      0.553304  
      95A      0.562608    96A      0.572649    97A      0.580776  
      98A      0.588161    99A      0.597769   100A      0.598844  
     101A      0.610483   102A      0.616142   103A      0.621697  
     104A      0.634811   105A      0.641327   106A      0.649594  
     107A      0.652428   108A      0.659061   109A      0.669482  
     110A      0.680015   111A      0.683033   112A      0.686157  
     113A      0.692470   114A      0.702532   115A      0.710817  
     116A      0.715980   117A      0.719677   118A      0.739219  
     119A      0.740132   120A      0.758845   121A      0.767555  
     122A      0.776207   123A      0.795705   124A      0.802861  
     125A      0.810909   126A      0.826397   127A      0.837009  
     128A      0.852571   129A      0.858122   130A      0.881775  
     131A      0.887121   132A      0.889645   133A      0.907615  
     134A      0.911252   135A      0.924475   136A      0.953156  
     137A      0.971494   138A      0.995036   139A      1.008376  
     140A      1.017029   141A      1.047798   142A      1.055293  
     143A      1.074452   144A      1.080526   145A      1.094740  
     146A      1.097461   147A      1.112448   148A      1.113544  
     149A      1.137976   150A      1.143494   151A      1.155512  
     152A      1.159211   153A      1.181172   154A      1.186702  
     155A      1.193042   156A      1.200697   157A      1.225377  
     158A      1.229207   159A      1.237743   160A      1.241621  
     161A      1.253352   162A      1.270791   163A      1.273287  
     164A      1.276548   165A      1.282101   166A      1.295600  
     167A      1.302398   168A      1.308278   169A      1.313675  
     170A      1.327369   171A      1.332062   172A      1.339773  
     173A      1.356122   174A      1.369538   175A      1.373645  
     176A      1.379071   177A      1.384734   178A      1.396779  
     179A      1.401478   180A      1.407131   181A      1.421512  
     182A      1.430930   183A      1.441120   184A      1.451564  
     185A      1.456072   186A      1.469339   187A      1.475570  
     188A      1.485612   189A      1.492179   190A      1.501310  
     191A      1.515176   192A      1.520571   193A      1.532021  
     194A      1.543875   195A      1.552306   196A      1.553405  
     197A      1.566799   198A      1.576131   199A      1.589365  
     200A      1.593813   201A      1.609830   202A      1.616875  
     203A      1.622603   204A      1.635933   205A      1.643616  
     206A      1.649575   207A      1.656453   208A      1.662407  
     209A      1.677262   210A      1.697636   211A      1.712535  
     212A      1.714957   213A      1.733947   214A      1.745541  
     215A      1.756406   216A      1.758951   217A      1.762315  
     218A      1.774540   219A      1.784987   220A      1.797232  
     221A      1.828966   222A      1.849927   223A      1.871025  
     224A      1.873886   225A      1.886664   226A      1.917013  
     227A      1.940386   228A      1.943910   229A      1.954408  
     230A      1.961868   231A      1.983587   232A      1.993444  
     233A      2.008874   234A      2.100473   235A      2.110301  
     236A      2.115678   237A      2.129749   238A      2.169662  
     239A      2.180140   240A      2.231777   241A      2.256575  
     242A      2.306217   243A      2.333359   244A      2.335573  
     245A      2.373781   246A      2.398374   247A      2.418367  
     248A      2.437838   249A      2.444566   250A      2.455284  
     251A      2.485699   252A      2.489410   253A      2.497073  
     254A      2.536288   255A      2.575112   256A      2.623283  
     257A      2.641178   258A      2.674024   259A      2.682570  
     260A      2.737081   261A      2.786767   262A      2.811875  
     263A      2.844090   264A      2.873495   265A      2.905084  
     266A      2.940130   267A      2.962384   268A      2.971150  
     269A      2.988873   270A      3.014539   271A      3.059925  
     272A      3.076640   273A      3.110391   274A      3.139243  
     275A      3.154591   276A      3.192770   277A      3.252465  
     278A      3.295479   279A      3.313696   280A      3.334325  
     281A      3.350769   282A      3.388572   283A      3.393151  
     284A      3.405530   285A      3.414543   286A      3.457089  
     287A      3.459880   288A      3.481238   289A      3.493721  
     290A      3.515054   291A      3.521302   292A      3.538001  
     293A      3.545357   294A      3.554790   295A      3.564349  
     296A      3.570285   297A      3.586383   298A      3.590762  
     299A      3.599538   300A      3.603114   301A      3.608041  
     302A      3.635197   303A      3.639669   304A      3.642149  
     305A      3.654885   306A      3.673094   307A      3.681150  
     308A      3.699545   309A      3.706270   310A      3.718093  
     311A      3.733519   312A      3.758036   313A      3.783073  
     314A      3.800175   315A      3.804611   316A      3.817451  
     317A      3.831564   318A      3.837885   319A      3.849112  
     320A      3.856560   321A      3.863914   322A      3.869828  
     323A      3.882246   324A      3.890025   325A      3.899732  
     326A      3.903838   327A      3.917681   328A      3.924956  
     329A      3.933061   330A      3.941156   331A      3.943587  
     332A      3.969518   333A      3.992037   334A      4.015723  
     335A      4.019502   336A      4.022374   337A      4.080739  
     338A      4.091800   339A      4.097378   340A      4.119649  
     341A      4.135902   342A      4.147369   343A      4.152747  
     344A      4.169414   345A      4.172437   346A      4.189183  
     347A      4.195565   348A      4.215720   349A      4.235280  
     350A      4.259098   351A      4.274379   352A      4.293849  
     353A      4.305098   354A      4.316177   355A      4.326867  
     356A      4.330009   357A      4.336324   358A      4.356050  
     359A      4.375630   360A      4.379269   361A      4.397552  
     362A      4.422124   363A      4.437610   364A      4.440755  
     365A      4.467153   366A      4.478071   367A      4.487648  
     368A      4.490473   369A      4.501608   370A      4.509640  
     371A      4.517628   372A      4.524324   373A      4.530703  
     374A      4.542369   375A      4.558887   376A      4.570934  
     377A      4.590803   378A      4.596715   379A      4.617083  
     380A      4.618846   381A      4.627046   382A      4.636292  
     383A      4.655337   384A      4.660170   385A      4.666901  
     386A      4.677186   387A      4.682760   388A      4.702276  
     389A      4.715264   390A      4.717299   391A      4.721822  
     392A      4.737101   393A      4.752050   394A      4.762383  
     395A      4.766263   396A      4.784655   397A      4.792936  
     398A      4.800422   399A      4.817580   400A      4.821677  
     401A      4.837457   402A      4.852109   403A      4.864533  
     404A      4.887058   405A      4.887600   406A      4.896187  
     407A      4.902590   408A      4.919623   409A      4.920487  
     410A      4.935403   411A      4.941246   412A      4.947662  
     413A      4.954097   414A      4.967323   415A      4.970781  
     416A      4.980847   417A      4.985272   418A      4.993925  
     419A      5.002290   420A      5.019422   421A      5.029883  
     422A      5.037207   423A      5.050553   424A      5.063014  
     425A      5.078461   426A      5.101503   427A      5.105097  
     428A      5.131424   429A      5.162788   430A      5.176739  
     431A      5.182252   432A      5.206197   433A      5.226766  
     434A      5.256593   435A      5.262456   436A      5.284682  
     437A      5.290723   438A      5.297155   439A      5.326161  
     440A      5.337214   441A      5.346973   442A      5.362975  
     443A      5.377898   444A      5.396513   445A      5.429511  
     446A      5.454503   447A      5.465344   448A      5.486268  
     449A      5.507946   450A      5.528128   451A      5.558453  
     452A      5.564547   453A      5.631954   454A      5.641497  
     455A      5.660714   456A      5.677173   457A      5.691672  
     458A      5.701879   459A      5.719818   460A      5.746547  
     461A      5.763066   462A      5.801269   463A      5.809224  
     464A      5.825470   465A      5.833926   466A      5.851467  
     467A      5.913305   468A      5.916686   469A      5.931905  
     470A      5.955176   471A      5.984055   472A      6.030521  
     473A      6.033432   474A      6.069060   475A      6.109451  
     476A      6.132017   477A      6.140939   478A      6.194181  
     479A      6.264832   480A      6.323396   481A      6.326705  
     482A      6.355371   483A      6.381764   484A      6.395168  
     485A      6.398321   486A      6.434067   487A      6.478081  
     488A      6.488642   489A      6.496562   490A      6.515376  
     491A      6.530268   492A      6.560498   493A      6.574489  
     494A      6.741541   495A      6.793763   496A      6.801730  
     497A      6.815454   498A      6.948211   499A      6.973500  
     500A      7.054189   501A      7.267920   502A      7.280526  
     503A      7.296434   504A      7.319988   505A      7.455932  
     506A      7.516143   507A      7.545504   508A      7.583581  
     509A      7.597096   510A      7.601822   511A      7.633552  
     512A      7.684182   513A      7.720035   514A      7.740109  
     515A      7.751738   516A      7.810827   517A      7.815097  
     518A      7.849803   519A      7.936424   520A      7.947471  
     521A      8.118856   522A      8.309949   523A      8.447079  
     524A      8.646717   525A      9.599711   526A      9.697654  
     527A      9.909210   528A      9.930039   529A     12.590656  
     530A     14.033052   531A     14.368649   532A     14.749260  
     533A     43.827986   534A     45.439973   535A     45.586354  
     536A     45.797977  

    Final Occupation by Irrep:
              A 
    DOCC [    16 ]

  @DF-RHF Final Energy:  -192.02436903080320

   => Energetics <=

    Nuclear Repulsion Energy =            118.6728837274433346
    One-Electron Energy =                -495.4988298999666085
    Two-Electron Energy =                 184.8015771417200881
    Total Energy =                       -192.0243690308032001

Computation Completed


Properties will be evaluated at   0.000000,   0.000000,   0.000000 [a0]

Properties computed using the SCF density matrix

  Nuclear Dipole Moment: [e a0]
     X:  -109.6160      Y:   -17.1487      Z:     0.2831

  Electronic Dipole Moment: [e a0]
     X:   109.2926      Y:    17.5867      Z:     0.8380

  Dipole Moment: [e a0]
     X:    -0.3234      Y:     0.4379      Z:     1.1211     Total:     1.2463

  Dipole Moment: [D]
     X:    -0.8221      Y:     1.1131      Z:     2.8495     Total:     3.1677


*** tstop() called on r282 at Fri Sep 10 12:57:17 2021
Module time:
	user time   =      43.60 seconds =       0.73 minutes
	system time =       0.84 seconds =       0.01 minutes
	total time  =         44 seconds =       0.73 minutes
Total time:
	user time   =     127.15 seconds =       2.12 minutes
	system time =       2.61 seconds =       0.04 minutes
	total time  =        130 seconds =       2.17 minutes

  //>>>>>>>>>>>>>>>>>>>>>>>>>>>>>>>>>>>//
  //            Monomer B HF           //
  //<<<<<<<<<<<<<<<<<<<<<<<<<<<<<<<<<<<//


*** tstart() called on r282
*** at Fri Sep 10 12:57:17 2021

   => Loading Basis Set <=

    Name: JUN-CC-PVTZ
    Role: ORBITAL
    Keyword: BASIS
    atoms 1, 5, 7-10, 12-14, 16-17, 19-20, 22-24 entry H          line    36 file /home/r08543048/miniconda3/share/psi4/basis/jun-cc-pvtz.gbs 
    atoms 2-3, 6, 11, 15, 18, 21                 entry C          line   217 file /home/r08543048/miniconda3/share/psi4/basis/jun-cc-pvtz.gbs 
    atoms 4                                      entry O          line   305 file /home/r08543048/miniconda3/share/psi4/basis/jun-cc-pvtz.gbs 


         ---------------------------------------------------------
                                   SCF
               by Justin Turney, Rob Parrish, Andy Simmonett
                          and Daniel G. A. Smith
                              RHF Reference
                        1 Threads,  20980 MiB Core
         ---------------------------------------------------------

  ==> Geometry <==

    Molecular point group: c1
    Full point group: C1

    Geometry (in Angstrom), charge = 0, multiplicity = 1:

       Center              X                  Y                   Z               Mass       
    ------------   -----------------  -----------------  -----------------  -----------------
      Gh(H)          -1.115843402280    -1.898573081676     1.079162491604     1.007825032230
      Gh(C)          -2.069837402280     0.081314918324     0.803915491604    12.000000000000
      Gh(C)          -1.405089402280    -1.167477081676     0.301148491604    12.000000000000
      Gh(O)          -1.178900402280    -1.401116081676    -0.870914508396    15.994914619570
      Gh(H)          -1.390140402280     0.530503918324     1.535556491604     1.007825032230
      Gh(C)          -2.444074402280     1.057866918324    -0.296217508396    12.000000000000
      Gh(H)          -1.560972402280     1.371487918324    -0.849596508396     1.007825032230
      Gh(H)          -3.127775402280     0.594503918324    -1.004958508396     1.007825032230
      Gh(H)          -2.922394402280     1.941740918324     0.121714491604     1.007825032230
      Gh(H)          -2.943961402280    -0.235685081676     1.382168491604     1.007825032230
         C            2.305573597720    -1.521302081676     0.014763491604    12.000000000000
         H            3.174397597720    -1.447777081676    -0.640632508396     1.007825032230
         H            1.479062597720    -1.925906081676    -0.570331508396     1.007825032230
         H            2.544010597720    -2.232225081676     0.805899491604     1.007825032230
         C            1.945199597720    -0.152540081676     0.578736491604    12.000000000000
         H            1.095526597720    -0.244857081676     1.263101491604     1.007825032230
         H            2.773916597720     0.235070918324     1.178208491604     1.007825032230
         C            1.601988597720     0.854958918324    -0.511413508396    12.000000000000
         H            0.774739597720     0.464233918324    -1.109939508396     1.007825032230
         H            2.455261597720     0.947600918324    -1.188797508396     1.007825032230
         C            1.243660597720     2.224982918324     0.051040491604    12.000000000000
         H            2.075735597720     2.639476918324     0.621991491604     1.007825032230
         H            0.994000597720     2.933031918324    -0.739145508396     1.007825032230
         H            0.385088597720     2.158819918324     0.721727491604     1.007825032230

  Running in c1 symmetry.

  Rotational constants: A =      0.06891  B =      0.03782  C =      0.02807 [cm^-1]
  Rotational constants: A =   2065.94778  B =   1133.85808  C =    841.52159 [MHz]
  Nuclear repulsion =  131.076055149984143

  Charge       = 0
  Multiplicity = 1
  Electrons    = 34
  Nalpha       = 17
  Nbeta        = 17

  ==> Algorithm <==

  SCF Algorithm Type is DF.
  DIIS enabled.
  MOM disabled.
  Fractional occupation disabled.
  Guess Type is SAD.
  Energy threshold   = 1.00e-08
  Density threshold  = 1.00e-08
  Integral threshold = 0.00e+00

  ==> Primary Basis <==

  Basis Set: JUN-CC-PVTZ
    Blend: JUN-CC-PVTZ
    Number of shells: 200
    Number of basis function: 536
    Number of Cartesian functions: 600
    Spherical Harmonics?: true
    Max angular momentum: 3

   => Loading Basis Set <=

    Name: (JUN-CC-PVTZ AUX)
    Role: JKFIT
    Keyword: DF_BASIS_SCF
    atoms 1, 5, 7-10, 12-14, 16-17, 19-20, 22-24 entry H          line    70 file /home/r08543048/miniconda3/share/psi4/basis/jun-cc-pvtz-jkfit.gbs 
    atoms 2-3, 6, 11, 15, 18, 21                 entry C          line   152 file /home/r08543048/miniconda3/share/psi4/basis/jun-cc-pvtz-jkfit.gbs 
    atoms 4                                      entry O          line   272 file /home/r08543048/miniconda3/share/psi4/basis/jun-cc-pvtz-jkfit.gbs 

  ==> Pre-Iterations <==

   -------------------------------------------------------
    Irrep   Nso     Nmo     Nalpha   Nbeta   Ndocc  Nsocc
   -------------------------------------------------------
     A        536     536       0       0       0       0
   -------------------------------------------------------
    Total     536     536      17      17      17       0
   -------------------------------------------------------

  ==> Integral Setup <==

  ==> DiskDFJK: Density-Fitted J/K Matrices <==

    J tasked:                  Yes
    K tasked:                  Yes
    wK tasked:                  No
    OpenMP threads:              1
    Integrals threads:           1
    Memory [MiB]:            15735
    Algorithm:                Core
    Integral Cache:           LOAD
    Schwarz Cutoff:          1E-12
    Fitting Condition:       1E-10

   => Auxiliary Basis Set <=

  Basis Set: (JUN-CC-PVTZ AUX)
    Blend: JUN-CC-PVTZ-JKFIT
    Number of shells: 392
    Number of basis function: 1240
    Number of Cartesian functions: 1488
    Spherical Harmonics?: true
    Max angular momentum: 4

  Minimum eigenvalue in the overlap matrix is 4.3016427734E-05.
  Using Symmetric Orthogonalization.

  SCF Guess: Superposition of Atomic Densities via on-the-fly atomic UHF.

  ==> Iterations <==

                           Total Energy        Delta E     RMS |[F,P]|

   @DF-RHF iter SAD:  -156.79337046609120   -1.56793e+02   0.00000e+00 
   @DF-RHF iter   1:  -157.14983230099901   -3.56462e-01   1.07512e-03 DIIS
   @DF-RHF iter   2:  -157.31617069508292   -1.66338e-01   4.99844e-04 DIIS
   @DF-RHF iter   3:  -157.35341115748875   -3.72405e-02   8.81186e-05 DIIS
   @DF-RHF iter   4:  -157.35580521831139   -2.39406e-03   2.05931e-05 DIIS
   @DF-RHF iter   5:  -157.35589707949612   -9.18612e-05   5.31707e-06 DIIS
   @DF-RHF iter   6:  -157.35590474077898   -7.66128e-06   6.65613e-07 DIIS
   @DF-RHF iter   7:  -157.35590492048377   -1.79705e-07   1.17446e-07 DIIS
   @DF-RHF iter   8:  -157.35590492549449   -5.01072e-09   2.62841e-08 DIIS
   @DF-RHF iter   9:  -157.35590492576762   -2.73133e-10   5.99998e-09 DIIS
  Energy and wave function converged.


  ==> Post-Iterations <==

    Orbital Energies [Eh]
    ---------------------

    Doubly Occupied:                                                      

       1A    -11.213478     2A    -11.212851     3A    -11.207710  
       4A    -11.207595     5A     -1.071317     6A     -0.980205  
       7A     -0.860212     8A     -0.787543     9A     -0.638697  
      10A     -0.584236    11A     -0.575570    12A     -0.566834  
      13A     -0.514196    14A     -0.494038    15A     -0.469669  
      16A     -0.461256    17A     -0.455877  

    Virtual:                                                              

      18A      0.033205    19A      0.046857    20A      0.050665  
      21A      0.055348    22A      0.066654    23A      0.072146  
      24A      0.075573    25A      0.084598    26A      0.085489  
      27A      0.100934    28A      0.102966    29A      0.110406  
      30A      0.111965    31A      0.117601    32A      0.120257  
      33A      0.121788    34A      0.130759    35A      0.143443  
      36A      0.145120    37A      0.151583    38A      0.157240  
      39A      0.162303    40A      0.167891    41A      0.178854  
      42A      0.185015    43A      0.189509    44A      0.201602  
      45A      0.208158    46A      0.211828    47A      0.225372  
      48A      0.237322    49A      0.239588    50A      0.259432  
      51A      0.270672    52A      0.277182    53A      0.283630  
      54A      0.288383    55A      0.299839    56A      0.303602  
      57A      0.307005    58A      0.316715    59A      0.318390  
      60A      0.321656    61A      0.327413    62A      0.329957  
      63A      0.341587    64A      0.347231    65A      0.352248  
      66A      0.356865    67A      0.359932    68A      0.361178  
      69A      0.370390    70A      0.375934    71A      0.382567  
      72A      0.390611    73A      0.395590    74A      0.401627  
      75A      0.404070    76A      0.406035    77A      0.413162  
      78A      0.423860    79A      0.431124    80A      0.434904  
      81A      0.446765    82A      0.456126    83A      0.472028  
      84A      0.477309    85A      0.479260    86A      0.489648  
      87A      0.497869    88A      0.500003    89A      0.511128  
      90A      0.518477    91A      0.525894    92A      0.533165  
      93A      0.540199    94A      0.547383    95A      0.553233  
      96A      0.563068    97A      0.567124    98A      0.574538  
      99A      0.579624   100A      0.587816   101A      0.601214  
     102A      0.605188   103A      0.608434   104A      0.615450  
     105A      0.624227   106A      0.633312   107A      0.637350  
     108A      0.652053   109A      0.658030   110A      0.663641  
     111A      0.689124   112A      0.692880   113A      0.698832  
     114A      0.713918   115A      0.724024   116A      0.730294  
     117A      0.748540   118A      0.755653   119A      0.767244  
     120A      0.775257   121A      0.784366   122A      0.795794  
     123A      0.802319   124A      0.812434   125A      0.826802  
     126A      0.840062   127A      0.841592   128A      0.852761  
     129A      0.860805   130A      0.864066   131A      0.868574  
     132A      0.878127   133A      0.882920   134A      0.888967  
     135A      0.913288   136A      0.919204   137A      0.925812  
     138A      0.929575   139A      0.951217   140A      0.966385  
     141A      0.983330   142A      1.002285   143A      1.006216  
     144A      1.015251   145A      1.017555   146A      1.033539  
     147A      1.061441   148A      1.069094   149A      1.081823  
     150A      1.092948   151A      1.106089   152A      1.109228  
     153A      1.118804   154A      1.135845   155A      1.152564  
     156A      1.172284   157A      1.186049   158A      1.189212  
     159A      1.196384   160A      1.213967   161A      1.216495  
     162A      1.225724   163A      1.243915   164A      1.253618  
     165A      1.257395   166A      1.266180   167A      1.273257  
     168A      1.292752   169A      1.305802   170A      1.313749  
     171A      1.328112   172A      1.336932   173A      1.341657  
     174A      1.349078   175A      1.357259   176A      1.362709  
     177A      1.376178   178A      1.381388   179A      1.394469  
     180A      1.411110   181A      1.422500   182A      1.428137  
     183A      1.430657   184A      1.441989   185A      1.450842  
     186A      1.457194   187A      1.467942   188A      1.484325  
     189A      1.490318   190A      1.496038   191A      1.507832  
     192A      1.516245   193A      1.522667   194A      1.536571  
     195A      1.552913   196A      1.561355   197A      1.569825  
     198A      1.573754   199A      1.596125   200A      1.604812  
     201A      1.609375   202A      1.610611   203A      1.618980  
     204A      1.628837   205A      1.632415   206A      1.639317  
     207A      1.648810   208A      1.664635   209A      1.670998  
     210A      1.672953   211A      1.684853   212A      1.713032  
     213A      1.725188   214A      1.732103   215A      1.741205  
     216A      1.751962   217A      1.769866   218A      1.788746  
     219A      1.792304   220A      1.799795   221A      1.816975  
     222A      1.834102   223A      1.863458   224A      1.892123  
     225A      1.899887   226A      1.910568   227A      1.930388  
     228A      1.933993   229A      1.937623   230A      1.947182  
     231A      1.955172   232A      1.972784   233A      1.999680  
     234A      2.018795   235A      2.032988   236A      2.050242  
     237A      2.083371   238A      2.107617   239A      2.122642  
     240A      2.131421   241A      2.177408   242A      2.195530  
     243A      2.218879   244A      2.284294   245A      2.368027  
     246A      2.419260   247A      2.432897   248A      2.468268  
     249A      2.537859   250A      2.602068   251A      2.638805  
     252A      2.660189   253A      2.741556   254A      2.767164  
     255A      2.787184   256A      2.798989   257A      2.829342  
     258A      2.839349   259A      2.857652   260A      2.873643  
     261A      2.882109   262A      2.906544   263A      2.912031  
     264A      2.927253   265A      2.947270   266A      2.968355  
     267A      2.976305   268A      3.019795   269A      3.026922  
     270A      3.039952   271A      3.075166   272A      3.097422  
     273A      3.134939   274A      3.140385   275A      3.145438  
     276A      3.156963   277A      3.170000   278A      3.188188  
     279A      3.206637   280A      3.214167   281A      3.227453  
     282A      3.254295   283A      3.283401   284A      3.285409  
     285A      3.308093   286A      3.330283   287A      3.342076  
     288A      3.356902   289A      3.371324   290A      3.409597  
     291A      3.414605   292A      3.417009   293A      3.425455  
     294A      3.447037   295A      3.468163   296A      3.475499  
     297A      3.487339   298A      3.501537   299A      3.507068  
     300A      3.510195   301A      3.516929   302A      3.537981  
     303A      3.542866   304A      3.566339   305A      3.572758  
     306A      3.577805   307A      3.588307   308A      3.589424  
     309A      3.621706   310A      3.631677   311A      3.635216  
     312A      3.649233   313A      3.658077   314A      3.660676  
     315A      3.664861   316A      3.677662   317A      3.682753  
     318A      3.699560   319A      3.732428   320A      3.734904  
     321A      3.749515   322A      3.792187   323A      3.803931  
     324A      3.816679   325A      3.822354   326A      3.826967  
     327A      3.830354   328A      3.839728   329A      3.853012  
     330A      3.863381   331A      3.869102   332A      3.899011  
     333A      3.912043   334A      3.916821   335A      3.930790  
     336A      3.941978   337A      3.951217   338A      3.960138  
     339A      3.975943   340A      3.984755   341A      3.991298  
     342A      3.997956   343A      4.003306   344A      4.030932  
     345A      4.046052   346A      4.056314   347A      4.087177  
     348A      4.106028   349A      4.128783   350A      4.142030  
     351A      4.163839   352A      4.186123   353A      4.196861  
     354A      4.212802   355A      4.236117   356A      4.241680  
     357A      4.253419   358A      4.262766   359A      4.279063  
     360A      4.289311   361A      4.292738   362A      4.303100  
     363A      4.308971   364A      4.324761   365A      4.339687  
     366A      4.353931   367A      4.384557   368A      4.393008  
     369A      4.395660   370A      4.415897   371A      4.420038  
     372A      4.446005   373A      4.458451   374A      4.461752  
     375A      4.468603   376A      4.484358   377A      4.491402  
     378A      4.501751   379A      4.513899   380A      4.519960  
     381A      4.526927   382A      4.537957   383A      4.549203  
     384A      4.554961   385A      4.568069   386A      4.573840  
     387A      4.582260   388A      4.587138   389A      4.608831  
     390A      4.619981   391A      4.624677   392A      4.638216  
     393A      4.650797   394A      4.655681   395A      4.675874  
     396A      4.688806   397A      4.694923   398A      4.710669  
     399A      4.714464   400A      4.726246   401A      4.731752  
     402A      4.749217   403A      4.764760   404A      4.784329  
     405A      4.797067   406A      4.821871   407A      4.837168  
     408A      4.837522   409A      4.852784   410A      4.855510  
     411A      4.868569   412A      4.872532   413A      4.881977  
     414A      4.892794   415A      4.909933   416A      4.918442  
     417A      4.938126   418A      4.944731   419A      4.960029  
     420A      4.968197   421A      4.977800   422A      4.990249  
     423A      5.000872   424A      5.011076   425A      5.035024  
     426A      5.053231   427A      5.065397   428A      5.085204  
     429A      5.095372   430A      5.112867   431A      5.123350  
     432A      5.142615   433A      5.146942   434A      5.164737  
     435A      5.183023   436A      5.213894   437A      5.258567  
     438A      5.265277   439A      5.270017   440A      5.275749  
     441A      5.302513   442A      5.312148   443A      5.323068  
     444A      5.349243   445A      5.362813   446A      5.370381  
     447A      5.376599   448A      5.381843   449A      5.435166  
     450A      5.454141   451A      5.463388   452A      5.473301  
     453A      5.546548   454A      5.559504   455A      5.570372  
     456A      5.625729   457A      5.630921   458A      5.654282  
     459A      5.663706   460A      5.675365   461A      5.734218  
     462A      5.755282   463A      5.759058   464A      5.784762  
     465A      5.799285   466A      5.807121   467A      5.816682  
     468A      5.855837   469A      5.873709   470A      5.883424  
     471A      5.910033   472A      5.918080   473A      5.956598  
     474A      5.970921   475A      5.991044   476A      6.009000  
     477A      6.032773   478A      6.079454   479A      6.083197  
     480A      6.115181   481A      6.158044   482A      6.196009  
     483A      6.251169   484A      6.343074   485A      6.374005  
     486A      6.395858   487A      6.437048   488A      6.456881  
     489A      6.494530   490A      6.501867   491A      6.515712  
     492A      6.536604   493A      6.560608   494A      6.564651  
     495A      6.603958   496A      6.626007   497A      6.653608  
     498A      6.671248   499A      6.875487   500A      6.903624  
     501A      6.968768   502A      7.025303   503A      7.330943  
     504A      7.354502   505A      7.550271   506A      7.562198  
     507A      7.698150   508A      7.724118   509A      7.797100  
     510A      7.887277   511A      7.905309   512A      8.029229  
     513A      8.143041   514A      8.257912   515A      8.470174  
     516A      8.578015   517A      9.452622   518A      9.527913  
     519A      9.661869   520A      9.855926   521A      9.891114  
     522A      9.928939   523A      9.945952   524A     10.097892  
     525A     11.031077   526A     11.705832   527A     11.978387  
     528A     13.729833   529A     13.755369   530A     14.269451  
     531A     14.553921   532A     14.687691   533A     43.774079  
     534A     44.938598   535A     45.914756   536A     60.952376  

    Final Occupation by Irrep:
              A 
    DOCC [    17 ]

  @DF-RHF Final Energy:  -157.35590492576762

   => Energetics <=

    Nuclear Repulsion Energy =            131.0760551499841426
    One-Electron Energy =                -470.2613482077189815
    Two-Electron Energy =                 181.8293881319672209
    Total Energy =                       -157.3559049257676179

Computation Completed


Properties will be evaluated at   0.000000,   0.000000,   0.000000 [a0]

Properties computed using the SCF density matrix

  Nuclear Dipole Moment: [e a0]
     X:   114.0077      Y:    22.6088      Z:     2.1559

  Electronic Dipole Moment: [e a0]
     X:  -114.0063      Y:   -22.6081      Z:    -2.1559

  Dipole Moment: [e a0]
     X:     0.0014      Y:     0.0007      Z:    -0.0000     Total:     0.0016

  Dipole Moment: [D]
     X:     0.0037      Y:     0.0019      Z:    -0.0000     Total:     0.0041


*** tstop() called on r282 at Fri Sep 10 12:58:03 2021
Module time:
	user time   =      44.95 seconds =       0.75 minutes
	system time =       0.76 seconds =       0.01 minutes
	total time  =         46 seconds =       0.77 minutes
Total time:
	user time   =     172.10 seconds =       2.87 minutes
	system time =       3.37 seconds =       0.06 minutes
	total time  =        176 seconds =       2.93 minutes
  Constructing Basis Sets for SAPT...

   => Loading Basis Set <=

    Name: (JUN-CC-PVTZ AUX)
    Role: RIFIT
    Keyword: DF_BASIS_SAPT
    atoms 1, 5, 7-10, 12-14, 16-17, 19-20, 22-24 entry H          line    30 file /home/r08543048/miniconda3/share/psi4/basis/jun-cc-pvtz-ri.gbs 
    atoms 2-3, 6, 11, 15, 18, 21                 entry C          line   132 file /home/r08543048/miniconda3/share/psi4/basis/jun-cc-pvtz-ri.gbs 
    atoms 4                                      entry O          line   244 file /home/r08543048/miniconda3/share/psi4/basis/jun-cc-pvtz-ri.gbs 


  //>>>>>>>>>>>>>>>>>>>>>>>>>>>>>>>>>>>//
  //               SAPT0               //
  //<<<<<<<<<<<<<<<<<<<<<<<<<<<<<<<<<<<//


*** tstart() called on r282
*** at Fri Sep 10 12:58:03 2021

        SAPT0  
    Ed Hohenstein
     6 June 2009

      Orbital Information
  --------------------------
    NSO        =       536
    NMO        =       536
    NRI        =      1256
    NOCC A     =        16
    NOCC B     =        17
    FOCC A     =         0
    FOCC B     =         0
    NVIR A     =       520
    NVIR B     =       519

    Elst10,r            =    -0.002741722800 [Eh]
    Exch10              =     0.007511211474 [Eh]
    Exch10 (S^2)        =     0.007498547078 [Eh]

    Iter     Energy [mEh]          dE [mEh]         Residual      Time [s]
       1      -0.45845740       0.458457398       2.846011380             1
       2      -0.55898079       0.100523390       0.655732145             3
       3      -0.55992383       0.000943045       0.223220422             4
       4      -0.55864405      -0.001279789       0.077040715             5
       5      -0.55833990      -0.000304143       0.018931597             6
       6      -0.55846474       0.000124842       0.007405704             7
       7      -0.55847619       0.000011442       0.004016246             8
       8      -0.55845464      -0.000021548       0.001299382             9
       9      -0.55845824       0.000003602       0.000535478            11
      10      -0.55845952       0.000001279       0.000214222            12
      11      -0.55845879      -0.000000734       0.000067665            13
      12      -0.55845880       0.000000017       0.000018081            14
      13      -0.55845885       0.000000050       0.000003437            15
      14      -0.55845885      -0.000000006       0.000000869            16

    CHF Iterations converged


    Iter     Energy [mEh]          dE [mEh]         Residual      Time [s]
       1      -1.27332131       1.273321309       5.424256564             2
       2      -1.51234465       0.239023339       1.823972877             3
       3      -1.54119352       0.028848868       0.432176825             4
       4      -1.53582349      -0.005370027       0.136511327             5
       5      -1.53425291      -0.001570578       0.023086933             7
       6      -1.53455060       0.000297688       0.006623243             8
       7      -1.53458473       0.000034130       0.001464675             9
       8      -1.53457081      -0.000013919       0.000317302            10
       9      -1.53457096       0.000000146       0.000071762            12
      10      -1.53457140       0.000000448       0.000017323            13
      11      -1.53457139      -0.000000019       0.000004412            16
      12      -1.53457137      -0.000000020       0.000001198            17
      13      -1.53457137      -0.000000001       0.000000305            18

    CHF Iterations converged

    Ind20,r (A<-B)      =    -0.000558458848 [Eh]
    Ind20,r (B<-A)      =    -0.001534571365 [Eh]
    Ind20,r             =    -0.002093030213 [Eh]
    Exch-Ind20,r (A<-B) =     0.000482143086 [Eh]
    Exch-Ind20,r (B<-A) =     0.000941783567 [Eh]
    Exch-Ind20,r        =     0.001423926653 [Eh]
    Disp20              =    -0.009470609663 [Eh]
    Disp20 (SS)         =    -0.004735304831 [Eh]
    Disp20 (OS)         =    -0.004735304831 [Eh]
    Exch-Disp20         =     0.000828740549 [Eh]
    Exch-Disp20 (SS)    =     0.000536656922 [Eh]
    Exch-Disp20 (OS)    =     0.000292083627 [Eh]

    SAPT Results 
  --------------------------------------------------------------------------------------------------------
    Electrostatics                 -2.74172280 [mEh]      -1.72045703 [kcal/mol]      -7.19839222 [kJ/mol]
      Elst10,r                     -2.74172280 [mEh]      -1.72045703 [kcal/mol]      -7.19839222 [kJ/mol]

    Exchange                        7.51121147 [mEh]       4.71335636 [kcal/mol]      19.72068301 [kJ/mol]
      Exch10                        7.51121147 [mEh]       4.71335636 [kcal/mol]      19.72068301 [kJ/mol]
      Exch10(S^2)                   7.49854708 [mEh]       4.70540933 [kcal/mol]      19.68743264 [kJ/mol]

    Induction                      -1.21285938 [mEh]      -0.76108075 [kcal/mol]      -3.18436186 [kJ/mol]
      Ind20,r                      -2.09303021 [mEh]      -1.31339629 [kcal/mol]      -5.49525007 [kJ/mol]
      Exch-Ind20,r                  1.42392665 [mEh]       0.89352746 [kcal/mol]       3.73851891 [kJ/mol]
      delta HF,r (2)               -0.54375582 [mEh]      -0.34121193 [kcal/mol]      -1.42763070 [kJ/mol]

    Dispersion                     -8.64186911 [mEh]      -5.42285474 [kcal/mol]     -22.68922423 [kJ/mol]
      Disp20                       -9.47060966 [mEh]      -5.94289729 [kcal/mol]     -24.86508224 [kJ/mol]
      Exch-Disp20                   0.82874055 [mEh]       0.52004255 [kcal/mol]       2.17585801 [kJ/mol]
      Disp20 (SS)                  -4.73530483 [mEh]      -2.97144864 [kcal/mol]     -12.43254112 [kJ/mol]
      Disp20 (OS)                  -4.73530483 [mEh]      -2.97144864 [kcal/mol]     -12.43254112 [kJ/mol]
      Exch-Disp20 (SS)              0.53665692 [mEh]       0.33675730 [kcal/mol]       1.40899255 [kJ/mol]
      Exch-Disp20 (OS)              0.29208363 [mEh]       0.18328524 [kcal/mol]       0.76686546 [kJ/mol]

  Total HF                          3.55662930 [mEh]       2.23181858 [kcal/mol]       9.33792893 [kJ/mol]
  Total SAPT0                      -5.08523982 [mEh]      -3.19103616 [kcal/mol]     -13.35129530 [kJ/mol]

  Special recipe for scaled SAPT0 (see Manual):
    Electrostatics sSAPT0          -2.74172280 [mEh]      -1.72045703 [kcal/mol]      -7.19839222 [kJ/mol]
    Exchange sSAPT0                 7.51121147 [mEh]       4.71335636 [kcal/mol]      19.72068301 [kJ/mol]
    Induction sSAPT0               -1.20563252 [mEh]      -0.75654583 [kcal/mol]      -3.16538774 [kJ/mol]
    Dispersion sSAPT0              -8.63766300 [mEh]      -5.42021537 [kcal/mol]     -22.67818109 [kJ/mol]
  Total sSAPT0                     -5.07380685 [mEh]      -3.18386187 [kcal/mol]     -13.32127805 [kJ/mol]
  --------------------------------------------------------------------------------------------------------

*** tstop() called on r282 at Fri Sep 10 13:00:37 2021
Module time:
	user time   =     129.88 seconds =       2.16 minutes
	system time =      21.06 seconds =       0.35 minutes
	total time  =        154 seconds =       2.57 minutes
Total time:
	user time   =     302.14 seconds =       5.04 minutes
	system time =      24.43 seconds =       0.41 minutes
	total time  =        330 seconds =       5.50 minutes

    Psi4 stopped on: Friday, 10 September 2021 01:00PM
    Psi4 wall time for execution: 0:05:29.47

*** Psi4 exiting successfully. Buy a developer a beer!
