
    -----------------------------------------------------------------------
          Psi4: An Open-Source Ab Initio Electronic Structure Package
                               Psi4 1.3.2 release

                         Git: Rev {HEAD} ecbda83 


    R. M. Parrish, L. A. Burns, D. G. A. Smith, A. C. Simmonett,
    A. E. DePrince III, E. G. Hohenstein, U. Bozkaya, A. Yu. Sokolov,
    R. Di Remigio, R. M. Richard, J. F. Gonthier, A. M. James,
    H. R. McAlexander, A. Kumar, M. Saitow, X. Wang, B. P. Pritchard,
    P. Verma, H. F. Schaefer III, K. Patkowski, R. A. King, E. F. Valeev,
    F. A. Evangelista, J. M. Turney, T. D. Crawford, and C. D. Sherrill,
    J. Chem. Theory Comput. 13(7) pp 3185--3197 (2017).
    (doi: 10.1021/acs.jctc.7b00174)


                         Additional Contributions by
    P. Kraus, H. Kruse, M. H. Lechner, M. C. Schieber, R. A. Shaw,
    A. Alenaizan, R. Galvelis, Z. L. Glick, S. Lehtola, and J. P. Misiewicz

    -----------------------------------------------------------------------


    Psi4 started on: Friday, 10 September 2021 12:23PM

    Process ID: 56616
    Host:       r282
    PSIDATADIR: /home/r08543048/miniconda3/share/psi4
    Memory:     500.0 MiB
    Threads:    1
    
  ==> Input File <==

--------------------------------------------------------------------------
# Any line starting with the # character is a comment line
#! Sample  computation

memory 22 gb

molecule Dimer {
0 1
 H -2.269297   -1.126499   -0.980972
 C -2.263474    1.030462   -0.486727
 C -2.098735   -0.418963   -0.148975
 O -1.801945   -0.837755    0.953491
 H -2.021046    1.654351    0.368976
 H -1.624458    1.282094   -1.334371
 H -3.294062    1.207350   -0.800390








    
    
    
 --
0 1
 C   1.380642   -1.938170   -0.192021
 H   0.508638   -2.124439    0.435464
 H   2.269685   -2.195221    0.385293
 H   1.333907   -2.609961   -1.049183
 C   1.429001   -0.477832   -0.623846
 H   2.297161   -0.306813   -1.266898
 H   0.550574   -0.241796   -1.233501
 C   1.486764    0.478436    0.560810
 H   2.359631    0.231740    1.171355
 H   0.610304    0.315620    1.193183
 C   1.559389    1.938375    0.130669
 H   0.689544    2.211273   -0.468977
 H   1.595844    2.609570    0.988508
 H   2.447601    2.120928   -0.475873





units angstrom

no_reorient
symmetry c1
}

set globals{
  basis jun-cc-pvtz
}

energy('sapt0')


--------------------------------------------------------------------------

  Memory set to  20.489 GiB by Python driver.

  //>>>>>>>>>>>>>>>>>>>>>>>>>>>>>>>>>>>//
  //              Dimer HF             //
  //<<<<<<<<<<<<<<<<<<<<<<<<<<<<<<<<<<<//


*** tstart() called on r282
*** at Fri Sep 10 12:23:52 2021

   => Loading Basis Set <=

    Name: JUN-CC-PVTZ
    Role: ORBITAL
    Keyword: BASIS
    atoms 1, 5-7, 9-11, 13-14, 16-17, 19-21 entry H          line    36 file /home/r08543048/miniconda3/share/psi4/basis/jun-cc-pvtz.gbs 
    atoms 2-3, 8, 12, 15, 18                entry C          line   217 file /home/r08543048/miniconda3/share/psi4/basis/jun-cc-pvtz.gbs 
    atoms 4                                 entry O          line   305 file /home/r08543048/miniconda3/share/psi4/basis/jun-cc-pvtz.gbs 


         ---------------------------------------------------------
                                   SCF
               by Justin Turney, Rob Parrish, Andy Simmonett
                          and Daniel G. A. Smith
                              RHF Reference
                        1 Threads,  20980 MiB Core
         ---------------------------------------------------------

  ==> Geometry <==

    Molecular point group: c1
    Full point group: C1

    Geometry (in Angstrom), charge = 0, multiplicity = 1:

       Center              X                  Y                   Z               Mass       
    ------------   -----------------  -----------------  -----------------  -----------------
         H           -2.216388358922    -1.097115065067    -1.010731117186     1.007825032230
         C           -2.210565358922     1.059845934933    -0.516486117186    12.000000000000
         C           -2.045826358922    -0.389579065067    -0.178734117186    12.000000000000
         O           -1.749036358922    -0.808371065067     0.923731882814    15.994914619570
         H           -1.968137358922     1.683734934933     0.339216882814     1.007825032230
         H           -1.571549358922     1.311477934933    -1.364130117186     1.007825032230
         H           -3.241153358922     1.236733934933    -0.830149117186     1.007825032230
         C            1.433550641078    -1.908786065067    -0.221780117186    12.000000000000
         H            0.561546641078    -2.095055065067     0.405704882814     1.007825032230
         H            2.322593641078    -2.165837065067     0.355533882814     1.007825032230
         H            1.386815641078    -2.580577065067    -1.078942117186     1.007825032230
         C            1.481909641078    -0.448448065067    -0.653605117186    12.000000000000
         H            2.350069641078    -0.277429065067    -1.296657117186     1.007825032230
         H            0.603482641078    -0.212412065067    -1.263260117186     1.007825032230
         C            1.539672641078     0.507819934933     0.531050882814    12.000000000000
         H            2.412539641078     0.261123934933     1.141595882814     1.007825032230
         H            0.663212641078     0.345003934933     1.163423882814     1.007825032230
         C            1.612297641078     1.967758934933     0.100909882814    12.000000000000
         H            0.742452641078     2.240656934933    -0.498736117186     1.007825032230
         H            1.648752641078     2.638953934933     0.958748882814     1.007825032230
         H            2.500509641078     2.150311934933    -0.505632117186     1.007825032230

  Running in c1 symmetry.

  Rotational constants: A =      0.08410  B =      0.04694  C =      0.03499 [cm^-1]
  Rotational constants: A =   2521.18037  B =   1407.23666  C =   1049.03277 [MHz]
  Nuclear repulsion =  309.406603984015305

  Charge       = 0
  Multiplicity = 1
  Electrons    = 58
  Nalpha       = 29
  Nbeta        = 29

  ==> Algorithm <==

  SCF Algorithm Type is DF.
  DIIS enabled.
  MOM disabled.
  Fractional occupation disabled.
  Guess Type is SAD.
  Energy threshold   = 1.00e-08
  Density threshold  = 1.00e-08
  Integral threshold = 0.00e+00

  ==> Primary Basis <==

  Basis Set: JUN-CC-PVTZ
    Blend: JUN-CC-PVTZ
    Number of shells: 175
    Number of basis function: 469
    Number of Cartesian functions: 525
    Spherical Harmonics?: true
    Max angular momentum: 3

   => Loading Basis Set <=

    Name: (JUN-CC-PVTZ AUX)
    Role: JKFIT
    Keyword: DF_BASIS_SCF
    atoms 1, 5-7, 9-11, 13-14, 16-17, 19-21 entry H          line    70 file /home/r08543048/miniconda3/share/psi4/basis/jun-cc-pvtz-jkfit.gbs 
    atoms 2-3, 8, 12, 15, 18                entry C          line   152 file /home/r08543048/miniconda3/share/psi4/basis/jun-cc-pvtz-jkfit.gbs 
    atoms 4                                 entry O          line   272 file /home/r08543048/miniconda3/share/psi4/basis/jun-cc-pvtz-jkfit.gbs 

  ==> Pre-Iterations <==

   -------------------------------------------------------
    Irrep   Nso     Nmo     Nalpha   Nbeta   Ndocc  Nsocc
   -------------------------------------------------------
     A        469     469       0       0       0       0
   -------------------------------------------------------
    Total     469     469      29      29      29       0
   -------------------------------------------------------

  ==> Integral Setup <==

  ==> DiskDFJK: Density-Fitted J/K Matrices <==

    J tasked:                  Yes
    K tasked:                  Yes
    wK tasked:                  No
    OpenMP threads:              1
    Integrals threads:           1
    Memory [MiB]:            15735
    Algorithm:                Core
    Integral Cache:           SAVE
    Schwarz Cutoff:          1E-12
    Fitting Condition:       1E-10

   => Auxiliary Basis Set <=

  Basis Set: (JUN-CC-PVTZ AUX)
    Blend: JUN-CC-PVTZ-JKFIT
    Number of shells: 343
    Number of basis function: 1085
    Number of Cartesian functions: 1302
    Spherical Harmonics?: true
    Max angular momentum: 4

  Minimum eigenvalue in the overlap matrix is 4.6401353585E-05.
  Using Symmetric Orthogonalization.

  SCF Guess: Superposition of Atomic Densities via on-the-fly atomic UHF.

  ==> Iterations <==

                           Total Energy        Delta E     RMS |[F,P]|

   @DF-RHF iter SAD:  -309.04203674143753   -3.09042e+02   0.00000e+00 
   @DF-RHF iter   1:  -310.00496846837603   -9.62932e-01   1.59988e-03 DIIS
   @DF-RHF iter   2:  -310.25104640295388   -2.46078e-01   8.96987e-04 DIIS
   @DF-RHF iter   3:  -310.32314335612790   -7.20970e-02   1.91331e-04 DIIS
   @DF-RHF iter   4:  -310.32797983378180   -4.83648e-03   8.71209e-05 DIIS
   @DF-RHF iter   5:  -310.32895307782678   -9.73244e-04   1.32066e-05 DIIS
   @DF-RHF iter   6:  -310.32899799186276   -4.49140e-05   5.61740e-06 DIIS
   @DF-RHF iter   7:  -310.32900458871472   -6.59685e-06   2.23438e-06 DIIS
   @DF-RHF iter   8:  -310.32900606315218   -1.47444e-06   7.53949e-07 DIIS
   @DF-RHF iter   9:  -310.32900627051811   -2.07366e-07   1.56872e-07 DIIS
   @DF-RHF iter  10:  -310.32900627957963   -9.06152e-09   4.49574e-08 DIIS
   @DF-RHF iter  11:  -310.32900628010191   -5.22277e-10   1.34097e-08 DIIS
   @DF-RHF iter  12:  -310.32900628016756   -6.56541e-11   5.57461e-09 DIIS
  Energy and wave function converged.


  ==> Post-Iterations <==

    Orbital Energies [Eh]
    ---------------------

    Doubly Occupied:                                                      

       1A    -20.561364     2A    -11.339503     3A    -11.243415  
       4A    -11.212251     5A    -11.207615     6A    -11.206996  
       7A    -11.200086     8A     -1.392427     9A     -1.068417  
      10A     -1.026300    11A     -0.977119    12A     -0.857002  
      13A     -0.805818    14A     -0.784416    15A     -0.677328  
      16A     -0.640948    17A     -0.626005    18A     -0.604071  
      19A     -0.581226    20A     -0.572497    21A     -0.565059  
      22A     -0.563770    23A     -0.511378    24A     -0.505164  
      25A     -0.490708    26A     -0.465737    27A     -0.457041  
      28A     -0.452502    29A     -0.429856  

    Virtual:                                                              

      30A      0.044885    31A      0.052810    32A      0.057846  
      33A      0.061389    34A      0.068844    35A      0.078505  
      36A      0.084127    37A      0.089284    38A      0.093685  
      39A      0.107316    40A      0.109871    41A      0.116493  
      42A      0.122217    43A      0.124303    44A      0.131188  
      45A      0.132447    46A      0.143012    47A      0.148791  
      48A      0.163833    49A      0.181023    50A      0.182213  
      51A      0.193018    52A      0.198973    53A      0.204032  
      54A      0.219178    55A      0.230806    56A      0.235232  
      57A      0.247582    58A      0.253490    59A      0.266775  
      60A      0.271065    61A      0.281849    62A      0.289196  
      63A      0.290066    64A      0.304250    65A      0.306177  
      66A      0.312991    67A      0.323031    68A      0.324168  
      69A      0.325422    70A      0.328185    71A      0.336686  
      72A      0.340776    73A      0.349626    74A      0.354677  
      75A      0.361048    76A      0.371512    77A      0.376433  
      78A      0.380104    79A      0.390379    80A      0.393250  
      81A      0.399883    82A      0.407611    83A      0.411537  
      84A      0.421387    85A      0.434501    86A      0.436596  
      87A      0.446814    88A      0.455421    89A      0.462398  
      90A      0.471527    91A      0.485592    92A      0.490848  
      93A      0.509577    94A      0.515188    95A      0.525556  
      96A      0.529025    97A      0.535859    98A      0.540028  
      99A      0.549029   100A      0.555234   101A      0.577992  
     102A      0.587336   103A      0.595844   104A      0.598858  
     105A      0.601875   106A      0.613112   107A      0.638241  
     108A      0.653788   109A      0.655377   110A      0.669514  
     111A      0.690554   112A      0.701502   113A      0.705888  
     114A      0.713592   115A      0.721287   116A      0.742002  
     117A      0.750116   118A      0.751283   119A      0.760373  
     120A      0.775940   121A      0.785646   122A      0.796460  
     123A      0.800365   124A      0.809279   125A      0.818576  
     126A      0.824546   127A      0.829581   128A      0.833576  
     129A      0.840081   130A      0.851717   131A      0.862605  
     132A      0.866466   133A      0.878421   134A      0.881823  
     135A      0.900629   136A      0.905417   137A      0.915155  
     138A      0.922703   139A      0.932608   140A      0.946570  
     141A      0.962359   142A      0.976676   143A      0.985147  
     144A      1.000890   145A      1.010991   146A      1.016825  
     147A      1.023905   148A      1.038169   149A      1.049202  
     150A      1.076625   151A      1.096685   152A      1.106968  
     153A      1.109620   154A      1.138568   155A      1.155943  
     156A      1.165405   157A      1.199085   158A      1.209072  
     159A      1.219049   160A      1.231562   161A      1.239415  
     162A      1.249925   163A      1.252082   164A      1.264356  
     165A      1.287607   166A      1.303505   167A      1.313029  
     168A      1.336541   169A      1.344241   170A      1.348505  
     171A      1.363805   172A      1.375204   173A      1.384526  
     174A      1.395201   175A      1.397401   176A      1.412974  
     177A      1.418090   178A      1.428649   179A      1.433560  
     180A      1.445942   181A      1.469723   182A      1.487715  
     183A      1.488593   184A      1.510617   185A      1.515321  
     186A      1.523613   187A      1.533735   188A      1.540346  
     189A      1.550969   190A      1.556993   191A      1.567787  
     192A      1.580414   193A      1.596267   194A      1.608558  
     195A      1.617824   196A      1.624102   197A      1.633980  
     198A      1.640580   199A      1.644873   200A      1.661533  
     201A      1.674166   202A      1.684298   203A      1.709675  
     204A      1.719444   205A      1.740933   206A      1.752055  
     207A      1.757452   208A      1.776482   209A      1.790738  
     210A      1.815237   211A      1.821031   212A      1.837431  
     213A      1.867606   214A      1.882714   215A      1.895341  
     216A      1.909968   217A      1.931897   218A      1.943843  
     219A      1.948768   220A      1.968610   221A      1.997976  
     222A      2.006945   223A      2.046463   224A      2.072008  
     225A      2.157187   226A      2.324161   227A      2.401522  
     228A      2.408221   229A      2.435349   230A      2.540247  
     231A      2.678481   232A      2.712414   233A      2.721127  
     234A      2.740559   235A      2.763644   236A      2.786138  
     237A      2.815304   238A      2.830002   239A      2.833604  
     240A      2.860672   241A      2.879696   242A      2.891554  
     243A      2.911631   244A      2.914989   245A      2.930322  
     246A      2.939135   247A      2.946211   248A      2.959091  
     249A      2.996124   250A      3.014259   251A      3.032729  
     252A      3.037042   253A      3.072266   254A      3.082437  
     255A      3.090591   256A      3.119049   257A      3.131229  
     258A      3.136418   259A      3.141695   260A      3.150610  
     261A      3.164208   262A      3.165982   263A      3.185065  
     264A      3.199301   265A      3.202897   266A      3.231636  
     267A      3.241335   268A      3.264856   269A      3.280373  
     270A      3.290432   271A      3.299308   272A      3.325956  
     273A      3.331889   274A      3.335158   275A      3.355523  
     276A      3.357233   277A      3.369656   278A      3.374138  
     279A      3.393195   280A      3.411282   281A      3.415629  
     282A      3.419342   283A      3.424279   284A      3.446042  
     285A      3.450507   286A      3.458961   287A      3.472397  
     288A      3.483360   289A      3.500200   290A      3.507092  
     291A      3.513435   292A      3.516064   293A      3.544711  
     294A      3.553962   295A      3.570357   296A      3.575226  
     297A      3.584503   298A      3.585630   299A      3.600034  
     300A      3.610375   301A      3.634697   302A      3.642188  
     303A      3.659127   304A      3.665965   305A      3.671338  
     306A      3.680657   307A      3.691176   308A      3.710308  
     309A      3.738197   310A      3.750746   311A      3.776277  
     312A      3.788043   313A      3.795477   314A      3.809889  
     315A      3.816004   316A      3.834205   317A      3.842658  
     318A      3.846019   319A      3.862095   320A      3.882049  
     321A      3.888955   322A      3.901270   323A      3.933209  
     324A      3.953858   325A      3.957669   326A      3.964019  
     327A      3.973757   328A      3.986485   329A      3.993302  
     330A      4.011886   331A      4.030028   332A      4.071914  
     333A      4.087496   334A      4.108519   335A      4.161832  
     336A      4.180304   337A      4.185933   338A      4.188881  
     339A      4.202093   340A      4.212194   341A      4.238386  
     342A      4.243356   343A      4.261275   344A      4.266536  
     345A      4.291208   346A      4.295663   347A      4.311139  
     348A      4.315328   349A      4.335580   350A      4.343734  
     351A      4.352425   352A      4.372309   353A      4.382022  
     354A      4.389353   355A      4.397598   356A      4.408971  
     357A      4.426172   358A      4.429682   359A      4.447494  
     360A      4.465921   361A      4.478084   362A      4.495150  
     363A      4.510260   364A      4.518976   365A      4.523577  
     366A      4.540317   367A      4.548095   368A      4.553107  
     369A      4.569562   370A      4.595443   371A      4.598935  
     372A      4.625654   373A      4.639587   374A      4.651373  
     375A      4.662073   376A      4.672404   377A      4.718256  
     378A      4.719287   379A      4.742854   380A      4.747787  
     381A      4.764919   382A      4.798694   383A      4.817220  
     384A      4.829398   385A      4.846314   386A      4.854993  
     387A      4.892337   388A      4.905407   389A      4.930766  
     390A      4.953620   391A      5.023570   392A      5.037237  
     393A      5.059077   394A      5.066095   395A      5.115459  
     396A      5.127269   397A      5.138030   398A      5.158456  
     399A      5.160876   400A      5.180168   401A      5.249271  
     402A      5.261145   403A      5.262391   404A      5.270912  
     405A      5.296684   406A      5.312352   407A      5.315697  
     408A      5.342841   409A      5.362224   410A      5.363564  
     411A      5.377015   412A      5.433617   413A      5.453429  
     414A      5.457517   415A      5.465603   416A      5.478648  
     417A      5.542333   418A      5.543265   419A      5.561174  
     420A      5.576172   421A      5.629633   422A      5.637988  
     423A      5.659609   424A      5.674820   425A      5.681053  
     426A      5.705475   427A      5.714127   428A      5.754312  
     429A      5.764556   430A      5.784726   431A      5.801279  
     432A      5.812258   433A      5.817117   434A      5.852778  
     435A      5.878059   436A      5.910302   437A      5.917033  
     438A      5.957456   439A      5.967467   440A      5.996507  
     441A      6.004070   442A      6.069561   443A      6.093095  
     444A      6.120376   445A      6.192832   446A      6.311122  
     447A      6.432492   448A      6.441754   449A      6.498826  
     450A      6.518735   451A      6.554585   452A      6.562140  
     453A      6.602115   454A      6.634960   455A      6.790954  
     456A      6.933875   457A      7.251452   458A      7.267120  
     459A      7.302836   460A      7.461951   461A      7.606160  
     462A      7.708324   463A     12.483530   464A     13.717752  
     465A     14.098756   466A     14.264302   467A     14.502302  
     468A     14.632124   469A     14.709792  

    Final Occupation by Irrep:
              A 
    DOCC [    29 ]

  @DF-RHF Final Energy:  -310.32900628016756

   => Energetics <=

    Nuclear Repulsion Energy =            309.4066039840153053
    One-Electron Energy =               -1033.4191850315635293
    Two-Electron Energy =                 413.6835747673806623
    Total Energy =                       -310.3290062801675617

Computation Completed


Properties will be evaluated at   0.000000,   0.000000,   0.000000 [a0]

Properties computed using the SCF density matrix

  Nuclear Dipole Moment: [e a0]
     X:     5.7990      Y:     3.2206      Z:    -3.2617

  Electronic Dipole Moment: [e a0]
     X:    -6.1518      Y:    -2.6629      Z:     2.2841

  Dipole Moment: [e a0]
     X:    -0.3528      Y:     0.5577      Z:    -0.9776     Total:     1.1795

  Dipole Moment: [D]
     X:    -0.8967      Y:     1.4177      Z:    -2.4848     Total:     2.9980


*** tstop() called on r282 at Fri Sep 10 12:24:44 2021
Module time:
	user time   =      50.65 seconds =       0.84 minutes
	system time =       1.20 seconds =       0.02 minutes
	total time  =         52 seconds =       0.87 minutes
Total time:
	user time   =      50.65 seconds =       0.84 minutes
	system time =       1.20 seconds =       0.02 minutes
	total time  =         52 seconds =       0.87 minutes

  //>>>>>>>>>>>>>>>>>>>>>>>>>>>>>>>>>>>//
  //            Monomer A HF           //
  //<<<<<<<<<<<<<<<<<<<<<<<<<<<<<<<<<<<//


*** tstart() called on r282
*** at Fri Sep 10 12:24:44 2021

   => Loading Basis Set <=

    Name: JUN-CC-PVTZ
    Role: ORBITAL
    Keyword: BASIS
    atoms 1, 5-7, 9-11, 13-14, 16-17, 19-21 entry H          line    36 file /home/r08543048/miniconda3/share/psi4/basis/jun-cc-pvtz.gbs 
    atoms 2-3, 8, 12, 15, 18                entry C          line   217 file /home/r08543048/miniconda3/share/psi4/basis/jun-cc-pvtz.gbs 
    atoms 4                                 entry O          line   305 file /home/r08543048/miniconda3/share/psi4/basis/jun-cc-pvtz.gbs 


         ---------------------------------------------------------
                                   SCF
               by Justin Turney, Rob Parrish, Andy Simmonett
                          and Daniel G. A. Smith
                              RHF Reference
                        1 Threads,  20980 MiB Core
         ---------------------------------------------------------

  ==> Geometry <==

    Molecular point group: c1
    Full point group: C1

    Geometry (in Angstrom), charge = 0, multiplicity = 1:

       Center              X                  Y                   Z               Mass       
    ------------   -----------------  -----------------  -----------------  -----------------
         H           -2.216388358922    -1.097115065067    -1.010731117186     1.007825032230
         C           -2.210565358922     1.059845934933    -0.516486117186    12.000000000000
         C           -2.045826358922    -0.389579065067    -0.178734117186    12.000000000000
         O           -1.749036358922    -0.808371065067     0.923731882814    15.994914619570
         H           -1.968137358922     1.683734934933     0.339216882814     1.007825032230
         H           -1.571549358922     1.311477934933    -1.364130117186     1.007825032230
         H           -3.241153358922     1.236733934933    -0.830149117186     1.007825032230
      Gh(C)           1.433550641078    -1.908786065067    -0.221780117186    12.000000000000
      Gh(H)           0.561546641078    -2.095055065067     0.405704882814     1.007825032230
      Gh(H)           2.322593641078    -2.165837065067     0.355533882814     1.007825032230
      Gh(H)           1.386815641078    -2.580577065067    -1.078942117186     1.007825032230
      Gh(C)           1.481909641078    -0.448448065067    -0.653605117186    12.000000000000
      Gh(H)           2.350069641078    -0.277429065067    -1.296657117186     1.007825032230
      Gh(H)           0.603482641078    -0.212412065067    -1.263260117186     1.007825032230
      Gh(C)           1.539672641078     0.507819934933     0.531050882814    12.000000000000
      Gh(H)           2.412539641078     0.261123934933     1.141595882814     1.007825032230
      Gh(H)           0.663212641078     0.345003934933     1.163423882814     1.007825032230
      Gh(C)           1.612297641078     1.967758934933     0.100909882814    12.000000000000
      Gh(H)           0.742452641078     2.240656934933    -0.498736117186     1.007825032230
      Gh(H)           1.648752641078     2.638953934933     0.958748882814     1.007825032230
      Gh(H)           2.500509641078     2.150311934933    -0.505632117186     1.007825032230

  Running in c1 symmetry.

  Rotational constants: A =      0.08410  B =      0.04694  C =      0.03499 [cm^-1]
  Rotational constants: A =   2521.18037  B =   1407.23666  C =   1049.03277 [MHz]
  Nuclear repulsion =   69.664748201556563

  Charge       = 0
  Multiplicity = 1
  Electrons    = 24
  Nalpha       = 12
  Nbeta        = 12

  ==> Algorithm <==

  SCF Algorithm Type is DF.
  DIIS enabled.
  MOM disabled.
  Fractional occupation disabled.
  Guess Type is SAD.
  Energy threshold   = 1.00e-08
  Density threshold  = 1.00e-08
  Integral threshold = 0.00e+00

  ==> Primary Basis <==

  Basis Set: JUN-CC-PVTZ
    Blend: JUN-CC-PVTZ
    Number of shells: 175
    Number of basis function: 469
    Number of Cartesian functions: 525
    Spherical Harmonics?: true
    Max angular momentum: 3

   => Loading Basis Set <=

    Name: (JUN-CC-PVTZ AUX)
    Role: JKFIT
    Keyword: DF_BASIS_SCF
    atoms 1, 5-7, 9-11, 13-14, 16-17, 19-21 entry H          line    70 file /home/r08543048/miniconda3/share/psi4/basis/jun-cc-pvtz-jkfit.gbs 
    atoms 2-3, 8, 12, 15, 18                entry C          line   152 file /home/r08543048/miniconda3/share/psi4/basis/jun-cc-pvtz-jkfit.gbs 
    atoms 4                                 entry O          line   272 file /home/r08543048/miniconda3/share/psi4/basis/jun-cc-pvtz-jkfit.gbs 

  ==> Pre-Iterations <==

   -------------------------------------------------------
    Irrep   Nso     Nmo     Nalpha   Nbeta   Ndocc  Nsocc
   -------------------------------------------------------
     A        469     469       0       0       0       0
   -------------------------------------------------------
    Total     469     469      12      12      12       0
   -------------------------------------------------------

  ==> Integral Setup <==

  ==> DiskDFJK: Density-Fitted J/K Matrices <==

    J tasked:                  Yes
    K tasked:                  Yes
    wK tasked:                  No
    OpenMP threads:              1
    Integrals threads:           1
    Memory [MiB]:            15735
    Algorithm:                Core
    Integral Cache:           LOAD
    Schwarz Cutoff:          1E-12
    Fitting Condition:       1E-10

   => Auxiliary Basis Set <=

  Basis Set: (JUN-CC-PVTZ AUX)
    Blend: JUN-CC-PVTZ-JKFIT
    Number of shells: 343
    Number of basis function: 1085
    Number of Cartesian functions: 1302
    Spherical Harmonics?: true
    Max angular momentum: 4

  Minimum eigenvalue in the overlap matrix is 4.6401353585E-05.
  Using Symmetric Orthogonalization.

  SCF Guess: Superposition of Atomic Densities via on-the-fly atomic UHF.

  ==> Iterations <==

                           Total Energy        Delta E     RMS |[F,P]|

   @DF-RHF iter SAD:  -152.11958531396027   -1.52120e+02   0.00000e+00 
   @DF-RHF iter   1:  -152.85579952177818   -7.36214e-01   1.04232e-03 DIIS
   @DF-RHF iter   2:  -152.93609787979935   -8.02984e-02   7.11718e-04 DIIS
   @DF-RHF iter   3:  -152.97324841857048   -3.71505e-02   1.19776e-04 DIIS
   @DF-RHF iter   4:  -152.97536167499743   -2.11326e-03   4.62952e-05 DIIS
   @DF-RHF iter   5:  -152.97575652420016   -3.94849e-04   9.22818e-06 DIIS
   @DF-RHF iter   6:  -152.97578558812887   -2.90639e-05   3.67892e-06 DIIS
   @DF-RHF iter   7:  -152.97578948748654   -3.89936e-06   1.42285e-06 DIIS
   @DF-RHF iter   8:  -152.97579010778753   -6.20301e-07   3.28470e-07 DIIS
   @DF-RHF iter   9:  -152.97579014290224   -3.51147e-08   8.86727e-08 DIIS
   @DF-RHF iter  10:  -152.97579014508395   -2.18171e-09   1.89119e-08 DIIS
   @DF-RHF iter  11:  -152.97579014517251   -8.85620e-11   3.66490e-09 DIIS
  Energy and wave function converged.


  ==> Post-Iterations <==

    Orbital Energies [Eh]
    ---------------------

    Doubly Occupied:                                                      

       1A    -20.560301     2A    -11.337684     3A    -11.242770  
       4A     -1.390036     5A     -1.025006     6A     -0.803871  
       7A     -0.675045     8A     -0.624117     9A     -0.606685  
      10A     -0.563258    11A     -0.502699    12A     -0.428287  

    Virtual:                                                              

      13A      0.030389    14A      0.043062    15A      0.050239  
      16A      0.056993    17A      0.065608    18A      0.072786  
      19A      0.082747    20A      0.083017    21A      0.088189  
      22A      0.102417    23A      0.109441    24A      0.110736  
      25A      0.115987    26A      0.120096    27A      0.122382  
      28A      0.131336    29A      0.134131    30A      0.140503  
      31A      0.148432    32A      0.152003    33A      0.166662  
      34A      0.174600    35A      0.179907    36A      0.183173  
      37A      0.193523    38A      0.204501    39A      0.233945  
      40A      0.246442    41A      0.252525    42A      0.259520  
      43A      0.266802    44A      0.272187    45A      0.274334  
      46A      0.281193    47A      0.288353    48A      0.297939  
      49A      0.305116    50A      0.313957    51A      0.319491  
      52A      0.326607    53A      0.334835    54A      0.338705  
      55A      0.342375    56A      0.353054    57A      0.356481  
      58A      0.363279    59A      0.368239    60A      0.374170  
      61A      0.376906    62A      0.387166    63A      0.399400  
      64A      0.405939    65A      0.410541    66A      0.425030  
      67A      0.430137    68A      0.438632    69A      0.443620  
      70A      0.450398    71A      0.460752    72A      0.477272  
      73A      0.483497    74A      0.486233    75A      0.504686  
      76A      0.519907    77A      0.526755    78A      0.529720  
      79A      0.537181    80A      0.540492    81A      0.554260  
      82A      0.558309    83A      0.576599    84A      0.579926  
      85A      0.586187    86A      0.605395    87A      0.607484  
      88A      0.615516    89A      0.617348    90A      0.641429  
      91A      0.642666    92A      0.649740    93A      0.662030  
      94A      0.665681    95A      0.670226    96A      0.677295  
      97A      0.680252    98A      0.697960    99A      0.699950  
     100A      0.707087   101A      0.718721   102A      0.722050  
     103A      0.730891   104A      0.772293   105A      0.782456  
     106A      0.791338   107A      0.801008   108A      0.808209  
     109A      0.822316   110A      0.832402   111A      0.858973  
     112A      0.881855   113A      0.888238   114A      0.910648  
     115A      0.930517   116A      0.948634   117A      0.956238  
     118A      0.971274   119A      1.008318   120A      1.033697  
     121A      1.052569   122A      1.056299   123A      1.066294  
     124A      1.089827   125A      1.099298   126A      1.106783  
     127A      1.113727   128A      1.121611   129A      1.134792  
     130A      1.164253   131A      1.167614   132A      1.185354  
     133A      1.193372   134A      1.205364   135A      1.218850  
     136A      1.234587   137A      1.238203   138A      1.241187  
     139A      1.245963   140A      1.254763   141A      1.263255  
     142A      1.271173   143A      1.282088   144A      1.292943  
     145A      1.298808   146A      1.309306   147A      1.314723  
     148A      1.320065   149A      1.328210   150A      1.352437  
     151A      1.364299   152A      1.377440   153A      1.379596  
     154A      1.385452   155A      1.391733   156A      1.400050  
     157A      1.407031   158A      1.410236   159A      1.430082  
     160A      1.431334   161A      1.458624   162A      1.462404  
     163A      1.475326   164A      1.483674   165A      1.497690  
     166A      1.510567   167A      1.519844   168A      1.529809  
     169A      1.539730   170A      1.552981   171A      1.553700  
     172A      1.564056   173A      1.570572   174A      1.585807  
     175A      1.595352   176A      1.607053   177A      1.624711  
     178A      1.635983   179A      1.648726   180A      1.653792  
     181A      1.660217   182A      1.687157   183A      1.691293  
     184A      1.695168   185A      1.723537   186A      1.739161  
     187A      1.754182   188A      1.763912   189A      1.779171  
     190A      1.794263   191A      1.809323   192A      1.833135  
     193A      1.855151   194A      1.872604   195A      1.880404  
     196A      1.919493   197A      1.938652   198A      1.944888  
     199A      1.968736   200A      1.987434   201A      1.997037  
     202A      2.095756   203A      2.100833   204A      2.113119  
     205A      2.162910   206A      2.177718   207A      2.227153  
     208A      2.239182   209A      2.297039   210A      2.325350  
     211A      2.330372   212A      2.340803   213A      2.371541  
     214A      2.411058   215A      2.417284   216A      2.429698  
     217A      2.440528   218A      2.462187   219A      2.481899  
     220A      2.486068   221A      2.528343   222A      2.553794  
     223A      2.619441   224A      2.638774   225A      2.668511  
     226A      2.678781   227A      2.703752   228A      2.742214  
     229A      2.781560   230A      2.839155   231A      2.897281  
     232A      2.956773   233A      2.972570   234A      3.036564  
     235A      3.058090   236A      3.078977   237A      3.115811  
     238A      3.181341   239A      3.198475   240A      3.238339  
     241A      3.271328   242A      3.338175   243A      3.347892  
     244A      3.379591   245A      3.402103   246A      3.435392  
     247A      3.462599   248A      3.481359   249A      3.513355  
     250A      3.523716   251A      3.535849   252A      3.554843  
     253A      3.558059   254A      3.569535   255A      3.585442  
     256A      3.587492   257A      3.594244   258A      3.612118  
     259A      3.623297   260A      3.632764   261A      3.644127  
     262A      3.651129   263A      3.662737   264A      3.682094  
     265A      3.683874   266A      3.696953   267A      3.759092  
     268A      3.769541   269A      3.782850   270A      3.784043  
     271A      3.799444   272A      3.811303   273A      3.815513  
     274A      3.833376   275A      3.845356   276A      3.862808  
     277A      3.866504   278A      3.875487   279A      3.877573  
     280A      3.883649   281A      3.903804   282A      3.912227  
     283A      3.920168   284A      3.925436   285A      3.938198  
     286A      3.958509   287A      3.980624   288A      4.005465  
     289A      4.031065   290A      4.067782   291A      4.079405  
     292A      4.092128   293A      4.105038   294A      4.133947  
     295A      4.151115   296A      4.172790   297A      4.181219  
     298A      4.186114   299A      4.195135   300A      4.223271  
     301A      4.247002   302A      4.276175   303A      4.286138  
     304A      4.301753   305A      4.314803   306A      4.317155  
     307A      4.339752   308A      4.355389   309A      4.376550  
     310A      4.390639   311A      4.395973   312A      4.405248  
     313A      4.425045   314A      4.451567   315A      4.469506  
     316A      4.483248   317A      4.487230   318A      4.511899  
     319A      4.519879   320A      4.532694   321A      4.546613  
     322A      4.559281   323A      4.571673   324A      4.577205  
     325A      4.584175   326A      4.594458   327A      4.605985  
     328A      4.615181   329A      4.624339   330A      4.649919  
     331A      4.663415   332A      4.675053   333A      4.694935  
     334A      4.712000   335A      4.720665   336A      4.729062  
     337A      4.737601   338A      4.746748   339A      4.757700  
     340A      4.769027   341A      4.774228   342A      4.781130  
     343A      4.789528   344A      4.801012   345A      4.812529  
     346A      4.822168   347A      4.845226   348A      4.849840  
     349A      4.874834   350A      4.885240   351A      4.894116  
     352A      4.897277   353A      4.904422   354A      4.920950  
     355A      4.925029   356A      4.939180   357A      4.945896  
     358A      4.946586   359A      4.972833   360A      4.975447  
     361A      4.978984   362A      4.984850   363A      5.010633  
     364A      5.025584   365A      5.042698   366A      5.047559  
     367A      5.065377   368A      5.074102   369A      5.112601  
     370A      5.128930   371A      5.153000   372A      5.158618  
     373A      5.165028   374A      5.180350   375A      5.203696  
     376A      5.236825   377A      5.251659   378A      5.257766  
     379A      5.289709   380A      5.335956   381A      5.348074  
     382A      5.357599   383A      5.379731   384A      5.438891  
     385A      5.457287   386A      5.470472   387A      5.484932  
     388A      5.520734   389A      5.539360   390A      5.547413  
     391A      5.561708   392A      5.580922   393A      5.634425  
     394A      5.640763   395A      5.652344   396A      5.681004  
     397A      5.692331   398A      5.707564   399A      5.720205  
     400A      5.793355   401A      5.806172   402A      5.816794  
     403A      5.831397   404A      5.879076   405A      5.913874  
     406A      5.952182   407A      6.023362   408A      6.033302  
     409A      6.063784   410A      6.089996   411A      6.109443  
     412A      6.122756   413A      6.139168   414A      6.260304  
     415A      6.312686   416A      6.322251   417A      6.344228  
     418A      6.374782   419A      6.385062   420A      6.395891  
     421A      6.428573   422A      6.437217   423A      6.454582  
     424A      6.475767   425A      6.488785   426A      6.514263  
     427A      6.555904   428A      6.742670   429A      6.790533  
     430A      6.794570   431A      6.812254   432A      6.936097  
     433A      6.948187   434A      7.051130   435A      7.252879  
     436A      7.266949   437A      7.269385   438A      7.305148  
     439A      7.458556   440A      7.513288   441A      7.545203  
     442A      7.576504   443A      7.595099   444A      7.601898  
     445A      7.612142   446A      7.677389   447A      7.712864  
     448A      7.726973   449A      7.742184   450A      7.808478  
     451A      7.815188   452A      7.850334   453A      7.936529  
     454A      7.940567   455A      8.115184   456A      8.300136  
     457A      8.441152   458A      8.639891   459A      9.596234  
     460A      9.693219   461A      9.888513   462A      9.921291  
     463A     12.492817   464A     14.112604   465A     14.673371  
     466A     43.784927   467A     45.375242   468A     45.519542  
     469A     45.750867  

    Final Occupation by Irrep:
              A 
    DOCC [    12 ]

  @DF-RHF Final Energy:  -152.97579014517251

   => Energetics <=

    Nuclear Repulsion Energy =             69.6647482015565629
    One-Electron Energy =                -345.7615612990844625
    Two-Electron Energy =                 123.1210229523554034
    Total Energy =                       -152.9757901451724820

Computation Completed


Properties will be evaluated at   0.000000,   0.000000,   0.000000 [a0]

Properties computed using the SCF density matrix

  Nuclear Dipole Moment: [e a0]
     X:   -91.7044      Y:     1.3029      Z:     0.6666

  Electronic Dipole Moment: [e a0]
     X:    91.3913      Y:    -0.6842      Z:    -1.7697

  Dipole Moment: [e a0]
     X:    -0.3131      Y:     0.6187      Z:    -1.1031     Total:     1.3030

  Dipole Moment: [D]
     X:    -0.7958      Y:     1.5726      Z:    -2.8039     Total:     3.3118


*** tstop() called on r282 at Fri Sep 10 12:25:11 2021
Module time:
	user time   =      26.45 seconds =       0.44 minutes
	system time =       0.56 seconds =       0.01 minutes
	total time  =         27 seconds =       0.45 minutes
Total time:
	user time   =      77.10 seconds =       1.29 minutes
	system time =       1.76 seconds =       0.03 minutes
	total time  =         79 seconds =       1.32 minutes

  //>>>>>>>>>>>>>>>>>>>>>>>>>>>>>>>>>>>//
  //            Monomer B HF           //
  //<<<<<<<<<<<<<<<<<<<<<<<<<<<<<<<<<<<//


*** tstart() called on r282
*** at Fri Sep 10 12:25:11 2021

   => Loading Basis Set <=

    Name: JUN-CC-PVTZ
    Role: ORBITAL
    Keyword: BASIS
    atoms 1, 5-7, 9-11, 13-14, 16-17, 19-21 entry H          line    36 file /home/r08543048/miniconda3/share/psi4/basis/jun-cc-pvtz.gbs 
    atoms 2-3, 8, 12, 15, 18                entry C          line   217 file /home/r08543048/miniconda3/share/psi4/basis/jun-cc-pvtz.gbs 
    atoms 4                                 entry O          line   305 file /home/r08543048/miniconda3/share/psi4/basis/jun-cc-pvtz.gbs 


         ---------------------------------------------------------
                                   SCF
               by Justin Turney, Rob Parrish, Andy Simmonett
                          and Daniel G. A. Smith
                              RHF Reference
                        1 Threads,  20980 MiB Core
         ---------------------------------------------------------

  ==> Geometry <==

    Molecular point group: c1
    Full point group: C1

    Geometry (in Angstrom), charge = 0, multiplicity = 1:

       Center              X                  Y                   Z               Mass       
    ------------   -----------------  -----------------  -----------------  -----------------
      Gh(H)          -2.216388358922    -1.097115065067    -1.010731117186     1.007825032230
      Gh(C)          -2.210565358922     1.059845934933    -0.516486117186    12.000000000000
      Gh(C)          -2.045826358922    -0.389579065067    -0.178734117186    12.000000000000
      Gh(O)          -1.749036358922    -0.808371065067     0.923731882814    15.994914619570
      Gh(H)          -1.968137358922     1.683734934933     0.339216882814     1.007825032230
      Gh(H)          -1.571549358922     1.311477934933    -1.364130117186     1.007825032230
      Gh(H)          -3.241153358922     1.236733934933    -0.830149117186     1.007825032230
         C            1.433550641078    -1.908786065067    -0.221780117186    12.000000000000
         H            0.561546641078    -2.095055065067     0.405704882814     1.007825032230
         H            2.322593641078    -2.165837065067     0.355533882814     1.007825032230
         H            1.386815641078    -2.580577065067    -1.078942117186     1.007825032230
         C            1.481909641078    -0.448448065067    -0.653605117186    12.000000000000
         H            2.350069641078    -0.277429065067    -1.296657117186     1.007825032230
         H            0.603482641078    -0.212412065067    -1.263260117186     1.007825032230
         C            1.539672641078     0.507819934933     0.531050882814    12.000000000000
         H            2.412539641078     0.261123934933     1.141595882814     1.007825032230
         H            0.663212641078     0.345003934933     1.163423882814     1.007825032230
         C            1.612297641078     1.967758934933     0.100909882814    12.000000000000
         H            0.742452641078     2.240656934933    -0.498736117186     1.007825032230
         H            1.648752641078     2.638953934933     0.958748882814     1.007825032230
         H            2.500509641078     2.150311934933    -0.505632117186     1.007825032230

  Running in c1 symmetry.

  Rotational constants: A =      0.08410  B =      0.04694  C =      0.03499 [cm^-1]
  Rotational constants: A =   2521.18037  B =   1407.23666  C =   1049.03277 [MHz]
  Nuclear repulsion =  131.080665300615777

  Charge       = 0
  Multiplicity = 1
  Electrons    = 34
  Nalpha       = 17
  Nbeta        = 17

  ==> Algorithm <==

  SCF Algorithm Type is DF.
  DIIS enabled.
  MOM disabled.
  Fractional occupation disabled.
  Guess Type is SAD.
  Energy threshold   = 1.00e-08
  Density threshold  = 1.00e-08
  Integral threshold = 0.00e+00

  ==> Primary Basis <==

  Basis Set: JUN-CC-PVTZ
    Blend: JUN-CC-PVTZ
    Number of shells: 175
    Number of basis function: 469
    Number of Cartesian functions: 525
    Spherical Harmonics?: true
    Max angular momentum: 3

   => Loading Basis Set <=

    Name: (JUN-CC-PVTZ AUX)
    Role: JKFIT
    Keyword: DF_BASIS_SCF
    atoms 1, 5-7, 9-11, 13-14, 16-17, 19-21 entry H          line    70 file /home/r08543048/miniconda3/share/psi4/basis/jun-cc-pvtz-jkfit.gbs 
    atoms 2-3, 8, 12, 15, 18                entry C          line   152 file /home/r08543048/miniconda3/share/psi4/basis/jun-cc-pvtz-jkfit.gbs 
    atoms 4                                 entry O          line   272 file /home/r08543048/miniconda3/share/psi4/basis/jun-cc-pvtz-jkfit.gbs 

  ==> Pre-Iterations <==

   -------------------------------------------------------
    Irrep   Nso     Nmo     Nalpha   Nbeta   Ndocc  Nsocc
   -------------------------------------------------------
     A        469     469       0       0       0       0
   -------------------------------------------------------
    Total     469     469      17      17      17       0
   -------------------------------------------------------

  ==> Integral Setup <==

  ==> DiskDFJK: Density-Fitted J/K Matrices <==

    J tasked:                  Yes
    K tasked:                  Yes
    wK tasked:                  No
    OpenMP threads:              1
    Integrals threads:           1
    Memory [MiB]:            15735
    Algorithm:                Core
    Integral Cache:           LOAD
    Schwarz Cutoff:          1E-12
    Fitting Condition:       1E-10

   => Auxiliary Basis Set <=

  Basis Set: (JUN-CC-PVTZ AUX)
    Blend: JUN-CC-PVTZ-JKFIT
    Number of shells: 343
    Number of basis function: 1085
    Number of Cartesian functions: 1302
    Spherical Harmonics?: true
    Max angular momentum: 4

  Minimum eigenvalue in the overlap matrix is 4.6401353585E-05.
  Using Symmetric Orthogonalization.

  SCF Guess: Superposition of Atomic Densities via on-the-fly atomic UHF.

  ==> Iterations <==

                           Total Energy        Delta E     RMS |[F,P]|

   @DF-RHF iter SAD:  -156.79392096694184   -1.56794e+02   0.00000e+00 
   @DF-RHF iter   1:  -157.14982069952760   -3.55900e-01   1.22880e-03 DIIS
   @DF-RHF iter   2:  -157.31618045115658   -1.66360e-01   5.71172e-04 DIIS
   @DF-RHF iter   3:  -157.35341011281429   -3.72297e-02   1.00705e-04 DIIS
   @DF-RHF iter   4:  -157.35580374513120   -2.39363e-03   2.35377e-05 DIIS
   @DF-RHF iter   5:  -157.35589561913369   -9.18740e-05   6.07632e-06 DIIS
   @DF-RHF iter   6:  -157.35590328137556   -7.66224e-06   7.60905e-07 DIIS
   @DF-RHF iter   7:  -157.35590346120949   -1.79834e-07   1.34314e-07 DIIS
   @DF-RHF iter   8:  -157.35590346622763   -5.01814e-09   3.01246e-08 DIIS
   @DF-RHF iter   9:  -157.35590346650159   -2.73957e-10   6.97158e-09 DIIS
  Energy and wave function converged.


  ==> Post-Iterations <==

    Orbital Energies [Eh]
    ---------------------

    Doubly Occupied:                                                      

       1A    -11.213448     2A    -11.212824     3A    -11.207632  
       4A    -11.207564     5A     -1.071341     6A     -0.980248  
       7A     -0.860215     8A     -0.787476     9A     -0.638827  
      10A     -0.584250    11A     -0.575541    12A     -0.566933  
      13A     -0.514153    14A     -0.494144    15A     -0.469517  
      16A     -0.461356    17A     -0.455860  

    Virtual:                                                              

      18A      0.037936    19A      0.047924    20A      0.055682  
      21A      0.056764    22A      0.068081    23A      0.076964  
      24A      0.081011    25A      0.086684    26A      0.089376  
      27A      0.106474    28A      0.112254    29A      0.114582  
      30A      0.116097    31A      0.122358    32A      0.125945  
      33A      0.131051    34A      0.149110    35A      0.154053  
      36A      0.163521    37A      0.174520    38A      0.179308  
      39A      0.184514    40A      0.192041    41A      0.201150  
      42A      0.210754    43A      0.215516    44A      0.229964  
      45A      0.241195    46A      0.253334    47A      0.263170  
      48A      0.265541    49A      0.276423    50A      0.292891  
      51A      0.298453    52A      0.304010    53A      0.306180  
      54A      0.310064    55A      0.319325    56A      0.324521  
      57A      0.331225    58A      0.335548    59A      0.338581  
      60A      0.350652    61A      0.361464    62A      0.363875  
      63A      0.367820    64A      0.379839    65A      0.382395  
      66A      0.389602    67A      0.394504    68A      0.398573  
      69A      0.407194    70A      0.409758    71A      0.418325  
      72A      0.422697    73A      0.435357    74A      0.449537  
      75A      0.458106    76A      0.461489    77A      0.473490  
      78A      0.479073    79A      0.485677    80A      0.499344  
      81A      0.511558    82A      0.522050    83A      0.526437  
      84A      0.531648    85A      0.536618    86A      0.538799  
      87A      0.547063    88A      0.555365    89A      0.560632  
      90A      0.573128    91A      0.584046    92A      0.592822  
      93A      0.602696    94A      0.605418    95A      0.611854  
      96A      0.628916    97A      0.629931    98A      0.660941  
      99A      0.663708   100A      0.691651   101A      0.706664  
     102A      0.711140   103A      0.720314   104A      0.737197  
     105A      0.758518   106A      0.761736   107A      0.773048  
     108A      0.784462   109A      0.791621   110A      0.818159  
     111A      0.820567   112A      0.829377   113A      0.835768  
     114A      0.841987   115A      0.846624   116A      0.856149  
     117A      0.865806   118A      0.871821   119A      0.879305  
     120A      0.893787   121A      0.905231   122A      0.913679  
     123A      0.929865   124A      0.942663   125A      0.967660  
     126A      0.969159   127A      0.994826   128A      1.002370  
     129A      1.005635   130A      1.010756   131A      1.030370  
     132A      1.034739   133A      1.051737   134A      1.064134  
     135A      1.070393   136A      1.089370   137A      1.102638  
     138A      1.119096   139A      1.141179   140A      1.167452  
     141A      1.167653   142A      1.174700   143A      1.180945  
     144A      1.203346   145A      1.219493   146A      1.227657  
     147A      1.232265   148A      1.250484   149A      1.263812  
     150A      1.274332   151A      1.284906   152A      1.305160  
     153A      1.313179   154A      1.323594   155A      1.337576  
     156A      1.343703   157A      1.345377   158A      1.360675  
     159A      1.380856   160A      1.386538   161A      1.399760  
     162A      1.418201   163A      1.425213   164A      1.433221  
     165A      1.440255   166A      1.440893   167A      1.450096  
     168A      1.467791   169A      1.490382   170A      1.502042  
     171A      1.508940   172A      1.517495   173A      1.528833  
     174A      1.532718   175A      1.555324   176A      1.561911  
     177A      1.574973   178A      1.584847   179A      1.600886  
     180A      1.602395   181A      1.609030   182A      1.610317  
     183A      1.614073   184A      1.636113   185A      1.642454  
     186A      1.663182   187A      1.677201   188A      1.694723  
     189A      1.713474   190A      1.720173   191A      1.735807  
     192A      1.761577   193A      1.776189   194A      1.781857  
     195A      1.788646   196A      1.813293   197A      1.824201  
     198A      1.864192   199A      1.879446   200A      1.890200  
     201A      1.911213   202A      1.927420   203A      1.931409  
     204A      1.938388   205A      1.948122   206A      1.989253  
     207A      1.997027   208A      2.032502   209A      2.043043  
     210A      2.067457   211A      2.070282   212A      2.087478  
     213A      2.114202   214A      2.186907   215A      2.231532  
     216A      2.374522   217A      2.380296   218A      2.497997  
     219A      2.550189   220A      2.611183   221A      2.718981  
     222A      2.732397   223A      2.749955   224A      2.761634  
     225A      2.786825   226A      2.815549   227A      2.833935  
     228A      2.870174   229A      2.871493   230A      2.882469  
     231A      2.900757   232A      2.916063   233A      2.926440  
     234A      2.946796   235A      2.953414   236A      3.004752  
     237A      3.020301   238A      3.029721   239A      3.064793  
     240A      3.094366   241A      3.128454   242A      3.134494  
     243A      3.139223   244A      3.145717   245A      3.153481  
     246A      3.168603   247A      3.184217   248A      3.186078  
     249A      3.205825   250A      3.242446   251A      3.259589  
     252A      3.279823   253A      3.299734   254A      3.324241  
     255A      3.330255   256A      3.351610   257A      3.365950  
     258A      3.406097   259A      3.410714   260A      3.413749  
     261A      3.423348   262A      3.439386   263A      3.452532  
     264A      3.466273   265A      3.479034   266A      3.491041  
     267A      3.501894   268A      3.510850   269A      3.513738  
     270A      3.529874   271A      3.540002   272A      3.558863  
     273A      3.576581   274A      3.584645   275A      3.585630  
     276A      3.602207   277A      3.611982   278A      3.636692  
     279A      3.638207   280A      3.654772   281A      3.658740  
     282A      3.672149   283A      3.684856   284A      3.708990  
     285A      3.733905   286A      3.742210   287A      3.784221  
     288A      3.790276   289A      3.811231   290A      3.819155  
     291A      3.829097   292A      3.840652   293A      3.843001  
     294A      3.850019   295A      3.858402   296A      3.875812  
     297A      3.897609   298A      3.922474   299A      3.945421  
     300A      3.953888   301A      3.958050   302A      3.968140  
     303A      3.971799   304A      3.981624   305A      3.998927  
     306A      4.021554   307A      4.032907   308A      4.049901  
     309A      4.071754   310A      4.090052   311A      4.153123  
     312A      4.170540   313A      4.182862   314A      4.193241  
     315A      4.210740   316A      4.216834   317A      4.240532  
     318A      4.249310   319A      4.261942   320A      4.288447  
     321A      4.290212   322A      4.309134   323A      4.312063  
     324A      4.315139   325A      4.335763   326A      4.352908  
     327A      4.370223   328A      4.377259   329A      4.388900  
     330A      4.397277   331A      4.409074   332A      4.423114  
     333A      4.430837   334A      4.438349   335A      4.456005  
     336A      4.479714   337A      4.499907   338A      4.504381  
     339A      4.511754   340A      4.524144   341A      4.534872  
     342A      4.543390   343A      4.543930   344A      4.559634  
     345A      4.567391   346A      4.569056   347A      4.599629  
     348A      4.612830   349A      4.626231   350A      4.646066  
     351A      4.657824   352A      4.675777   353A      4.698266  
     354A      4.708114   355A      4.723312   356A      4.734609  
     357A      4.746748   358A      4.757381   359A      4.762823  
     360A      4.772957   361A      4.796173   362A      4.802956  
     363A      4.821035   364A      4.837074   365A      4.845426  
     366A      4.859662   367A      4.888373   368A      4.900803  
     369A      4.903084   370A      4.911708   371A      4.949034  
     372A      4.951365   373A      4.961241   374A      4.976707  
     375A      5.012754   376A      5.039205   377A      5.054322  
     378A      5.062836   379A      5.111649   380A      5.116675  
     381A      5.119762   382A      5.134209   383A      5.154507  
     384A      5.163000   385A      5.240596   386A      5.258134  
     387A      5.259913   388A      5.279043   389A      5.293169  
     390A      5.311059   391A      5.316119   392A      5.359626  
     393A      5.361435   394A      5.374069   395A      5.390362  
     396A      5.430650   397A      5.451452   398A      5.463456  
     399A      5.539701   400A      5.558970   401A      5.612547  
     402A      5.627715   403A      5.645101   404A      5.656947  
     405A      5.672809   406A      5.743399   407A      5.756186  
     408A      5.767787   409A      5.782376   410A      5.791984  
     411A      5.805453   412A      5.816873   413A      5.855580  
     414A      5.906176   415A      5.913037   416A      5.951630  
     417A      5.963662   418A      5.984100   419A      5.999519  
     420A      6.061327   421A      6.074551   422A      6.095709  
     423A      6.114770   424A      6.171502   425A      6.193891  
     426A      6.265425   427A      6.284496   428A      6.330286  
     429A      6.478057   430A      6.495691   431A      6.496235  
     432A      6.522854   433A      6.554521   434A      6.559976  
     435A      6.594491   436A      6.600594   437A      6.632670  
     438A      6.701659   439A      6.766710   440A      6.882265  
     441A      7.016066   442A      7.321956   443A      7.455359  
     444A      7.570359   445A      7.599042   446A      7.807492  
     447A      7.842805   448A      7.908410   449A      8.158498  
     450A      8.321991   451A      8.490768   452A      9.403174  
     453A      9.455005   454A      9.838053   455A      9.859882  
     456A      9.911026   457A      9.934532   458A     10.053737  
     459A     10.992425   460A     11.668446   461A     11.884123  
     462A     13.705560   463A     13.740372   464A     14.255056  
     465A     14.501024   466A     14.654957   467A     43.366188  
     468A     45.890797   469A     60.580113  

    Final Occupation by Irrep:
              A 
    DOCC [    17 ]

  @DF-RHF Final Energy:  -157.35590346650159

   => Energetics <=

    Nuclear Repulsion Energy =            131.0806653006157774
    One-Electron Energy =                -470.2704780796593695
    Two-Electron Energy =                 181.8339093125419765
    Total Energy =                       -157.3559034665015872

Computation Completed


Properties will be evaluated at   0.000000,   0.000000,   0.000000 [a0]

Properties computed using the SCF density matrix

  Nuclear Dipole Moment: [e a0]
     X:    97.5034      Y:     1.9177      Z:    -3.9283

  Electronic Dipole Moment: [e a0]
     X:   -97.5027      Y:    -1.9174      Z:     3.9283

  Dipole Moment: [e a0]
     X:     0.0007      Y:     0.0004      Z:    -0.0000     Total:     0.0008

  Dipole Moment: [D]
     X:     0.0018      Y:     0.0009      Z:    -0.0000     Total:     0.0020


*** tstop() called on r282 at Fri Sep 10 12:25:38 2021
Module time:
	user time   =      26.35 seconds =       0.44 minutes
	system time =       0.53 seconds =       0.01 minutes
	total time  =         27 seconds =       0.45 minutes
Total time:
	user time   =     103.45 seconds =       1.72 minutes
	system time =       2.29 seconds =       0.04 minutes
	total time  =        106 seconds =       1.77 minutes
  Constructing Basis Sets for SAPT...

   => Loading Basis Set <=

    Name: (JUN-CC-PVTZ AUX)
    Role: RIFIT
    Keyword: DF_BASIS_SAPT
    atoms 1, 5-7, 9-11, 13-14, 16-17, 19-21 entry H          line    30 file /home/r08543048/miniconda3/share/psi4/basis/jun-cc-pvtz-ri.gbs 
    atoms 2-3, 8, 12, 15, 18                entry C          line   132 file /home/r08543048/miniconda3/share/psi4/basis/jun-cc-pvtz-ri.gbs 
    atoms 4                                 entry O          line   244 file /home/r08543048/miniconda3/share/psi4/basis/jun-cc-pvtz-ri.gbs 


  //>>>>>>>>>>>>>>>>>>>>>>>>>>>>>>>>>>>//
  //               SAPT0               //
  //<<<<<<<<<<<<<<<<<<<<<<<<<<<<<<<<<<<//


*** tstart() called on r282
*** at Fri Sep 10 12:25:38 2021

        SAPT0  
    Ed Hohenstein
     6 June 2009

      Orbital Information
  --------------------------
    NSO        =       469
    NMO        =       469
    NRI        =      1099
    NOCC A     =        12
    NOCC B     =        17
    FOCC A     =         0
    FOCC B     =         0
    NVIR A     =       457
    NVIR B     =       452

    Elst10,r            =    -0.002366737082 [Eh]
    Exch10              =     0.006201277504 [Eh]
    Exch10 (S^2)        =     0.006190471158 [Eh]

    Iter     Energy [mEh]          dE [mEh]         Residual      Time [s]
       1      -0.37605132       0.376051319       2.627775973             1
       2      -0.46053661       0.084485294       0.623569900             1
       3      -0.46135152       0.000814902       0.209073087             2
       4      -0.46025583      -0.001095690       0.076331228             3
       5      -0.45999037      -0.000265451       0.018371823             4
       6      -0.46010359       0.000113215       0.007204828             4
       7      -0.46011015       0.000006557       0.003426854             5
       8      -0.46009343      -0.000016720       0.000864361             6
       9      -0.46009804       0.000004617       0.000383310             6
      10      -0.46009687      -0.000001172       0.000131016             7
      11      -0.46009691       0.000000043       0.000035182             8
      12      -0.46009699       0.000000071       0.000007899             8
      13      -0.46009698      -0.000000005       0.000002514             9
      14      -0.46009698      -0.000000004       0.000000726            10

    CHF Iterations converged


    Iter     Energy [mEh]          dE [mEh]         Residual      Time [s]
       1      -1.22435159       1.224351595       5.406532051             1
       2      -1.44371945       0.219367852       1.915098055             1
       3      -1.47607192       0.032352477       0.453604576             2
       4      -1.47088682      -0.005185100       0.140910089             3
       5      -1.46910385      -0.001782970       0.022951840             4
       6      -1.46938249       0.000278633       0.006954180             5
       7      -1.46942352       0.000041037       0.001454718             5
       8      -1.46940951      -0.000014009       0.000300278             6
       9      -1.46940986       0.000000344       0.000062608             7
      10      -1.46941021       0.000000348       0.000015751             8
      11      -1.46941019      -0.000000014       0.000004471             8
      12      -1.46941017      -0.000000025       0.000000975             9

    CHF Iterations converged

    Ind20,r (A<-B)      =    -0.000460096976 [Eh]
    Ind20,r (B<-A)      =    -0.001469410167 [Eh]
    Ind20,r             =    -0.001929507143 [Eh]
    Exch-Ind20,r (A<-B) =     0.000393336277 [Eh]
    Exch-Ind20,r (B<-A) =     0.000853672860 [Eh]
    Exch-Ind20,r        =     0.001247009138 [Eh]
    Disp20              =    -0.007517360293 [Eh]
    Disp20 (SS)         =    -0.003758680147 [Eh]
    Disp20 (OS)         =    -0.003758680147 [Eh]
    Exch-Disp20         =     0.000673942521 [Eh]
    Exch-Disp20 (SS)    =     0.000433603638 [Eh]
    Exch-Disp20 (OS)    =     0.000240338883 [Eh]

    SAPT Results 
  --------------------------------------------------------------------------------------------------------
    Electrostatics                 -2.36673708 [mEh]      -1.48514994 [kcal/mol]      -6.21386735 [kJ/mol]
      Elst10,r                     -2.36673708 [mEh]      -1.48514994 [kcal/mol]      -6.21386735 [kJ/mol]

    Exchange                        6.20127750 [mEh]       3.89136038 [kcal/mol]      16.28145184 [kJ/mol]
      Exch10                        6.20127750 [mEh]       3.89136038 [kcal/mol]      16.28145184 [kJ/mol]
      Exch10(S^2)                   6.19047116 [mEh]       3.88457930 [kcal/mol]      16.25307979 [kJ/mol]

    Induction                      -1.14720892 [mEh]      -0.71988446 [kcal/mol]      -3.01199659 [kJ/mol]
      Ind20,r                      -1.92950714 [mEh]      -1.21078401 [kcal/mol]      -5.06592031 [kJ/mol]
      Exch-Ind20,r                  1.24700914 [mEh]       0.78251005 [kcal/mol]       3.27402204 [kJ/mol]
      delta HF,r (2)               -0.46471091 [mEh]      -0.29161050 [kcal/mol]      -1.22009833 [kJ/mol]

    Dispersion                     -6.84341777 [mEh]      -4.29430949 [kcal/mol]     -17.96739089 [kJ/mol]
      Disp20                       -7.51736029 [mEh]      -4.71721480 [kcal/mol]     -19.73682673 [kJ/mol]
      Exch-Disp20                   0.67394252 [mEh]       0.42290532 [kcal/mol]       1.76943585 [kJ/mol]
      Disp20 (SS)                  -3.75868015 [mEh]      -2.35860740 [kcal/mol]      -9.86841337 [kJ/mol]
      Disp20 (OS)                  -3.75868015 [mEh]      -2.35860740 [kcal/mol]      -9.86841337 [kJ/mol]
      Exch-Disp20 (SS)              0.43360364 [mEh]       0.27209039 [kcal/mol]       1.13842619 [kJ/mol]
      Exch-Disp20 (OS)              0.24033888 [mEh]       0.15081493 [kcal/mol]       0.63100965 [kJ/mol]

  Total HF                          2.68733151 [mEh]       1.68632598 [kcal/mol]       7.05558790 [kJ/mol]
  Total SAPT0                      -4.15608627 [mEh]      -2.60798351 [kcal/mol]     -10.91180299 [kJ/mol]

  Special recipe for scaled SAPT0 (see Manual):
    Electrostatics sSAPT0          -2.36673708 [mEh]      -1.48514994 [kcal/mol]      -6.21386735 [kJ/mol]
    Exchange sSAPT0                 6.20127750 [mEh]       3.89136038 [kcal/mol]      16.28145184 [kJ/mol]
    Induction sSAPT0               -1.14066701 [mEh]      -0.71577936 [kcal/mol]      -2.99482083 [kJ/mol]
    Dispersion sSAPT0              -6.83988222 [mEh]      -4.29209089 [kcal/mol]     -17.95810830 [kJ/mol]
  Total sSAPT0                     -4.14600881 [mEh]      -2.60165981 [kcal/mol]     -10.88534464 [kJ/mol]
  --------------------------------------------------------------------------------------------------------

*** tstop() called on r282 at Fri Sep 10 12:27:08 2021
Module time:
	user time   =      76.46 seconds =       1.27 minutes
	system time =      13.04 seconds =       0.22 minutes
	total time  =         90 seconds =       1.50 minutes
Total time:
	user time   =     180.05 seconds =       3.00 minutes
	system time =      15.33 seconds =       0.26 minutes
	total time  =        196 seconds =       3.27 minutes

    Psi4 stopped on: Friday, 10 September 2021 12:27PM
    Psi4 wall time for execution: 0:03:16.22

*** Psi4 exiting successfully. Buy a developer a beer!
