
    -----------------------------------------------------------------------
          Psi4: An Open-Source Ab Initio Electronic Structure Package
                               Psi4 1.3.2 release

                         Git: Rev {HEAD} ecbda83 


    R. M. Parrish, L. A. Burns, D. G. A. Smith, A. C. Simmonett,
    A. E. DePrince III, E. G. Hohenstein, U. Bozkaya, A. Yu. Sokolov,
    R. Di Remigio, R. M. Richard, J. F. Gonthier, A. M. James,
    H. R. McAlexander, A. Kumar, M. Saitow, X. Wang, B. P. Pritchard,
    P. Verma, H. F. Schaefer III, K. Patkowski, R. A. King, E. F. Valeev,
    F. A. Evangelista, J. M. Turney, T. D. Crawford, and C. D. Sherrill,
    J. Chem. Theory Comput. 13(7) pp 3185--3197 (2017).
    (doi: 10.1021/acs.jctc.7b00174)


                         Additional Contributions by
    P. Kraus, H. Kruse, M. H. Lechner, M. C. Schieber, R. A. Shaw,
    A. Alenaizan, R. Galvelis, Z. L. Glick, S. Lehtola, and J. P. Misiewicz

    -----------------------------------------------------------------------


    Psi4 started on: Friday, 10 September 2021 12:37PM

    Process ID: 56634
    Host:       r282
    PSIDATADIR: /home/r08543048/miniconda3/share/psi4
    Memory:     500.0 MiB
    Threads:    1
    
  ==> Input File <==

--------------------------------------------------------------------------
# Any line starting with the # character is a comment line
#! Sample  computation

memory 22 gb

molecule Dimer {
0 1
 H -0.100082   -2.368753    1.086875
 C -1.594116   -0.776999    0.713901
 C -0.565422   -1.778093    0.275248
 O -0.231236   -1.960381   -0.880219
 H -1.109657   -0.118717    1.444927
 C -2.218359    0.019638   -0.417866
 H -1.428443    0.517168   -0.981684
 H -2.701561   -0.667822   -1.113568
 H -2.354721   -1.323508    1.283795
 C -3.220202    1.042661    0.101270
 H -4.025873    0.556909    0.653404
 H -2.737802    1.753597    0.773617
 H -3.667736    1.607295   -0.715603


    
    
    
 --
0 1
 C    3.072018   -0.848758    0.070472
 H    3.880712   -0.497022   -0.571487
 H    2.451537   -1.527781   -0.515319
 H    3.517733   -1.414183    0.888848
 C    2.247220    0.325660    0.582237
 H    1.461497   -0.037230    1.252824
 H    2.874405    0.989614    1.184070
 C    1.610511    1.125617   -0.547379
 H    0.988267    0.457839   -1.149138
 H    2.399392    1.491816   -1.210059
 C    0.783442    2.299937   -0.038627
 H    1.403846    2.993541    0.530800
 H    0.324163    2.855119   -0.856659
 H   -0.016334    1.957190    0.620581





units angstrom

no_reorient
symmetry c1
}

set globals{
  basis jun-cc-pvtz
}

energy('sapt0')


--------------------------------------------------------------------------

  Memory set to  20.489 GiB by Python driver.

  //>>>>>>>>>>>>>>>>>>>>>>>>>>>>>>>>>>>//
  //              Dimer HF             //
  //<<<<<<<<<<<<<<<<<<<<<<<<<<<<<<<<<<<//


*** tstart() called on r282
*** at Fri Sep 10 12:37:30 2021

   => Loading Basis Set <=

    Name: JUN-CC-PVTZ
    Role: ORBITAL
    Keyword: BASIS
    atoms 1, 5, 7-9, 11-13, 15-17, 19-20, 22-23, 25-27 entry H          line    36 file /home/r08543048/miniconda3/share/psi4/basis/jun-cc-pvtz.gbs 
    atoms 2-3, 6, 10, 14, 18, 21, 24                   entry C          line   217 file /home/r08543048/miniconda3/share/psi4/basis/jun-cc-pvtz.gbs 
    atoms 4                                            entry O          line   305 file /home/r08543048/miniconda3/share/psi4/basis/jun-cc-pvtz.gbs 


         ---------------------------------------------------------
                                   SCF
               by Justin Turney, Rob Parrish, Andy Simmonett
                          and Daniel G. A. Smith
                              RHF Reference
                        1 Threads,  20980 MiB Core
         ---------------------------------------------------------

  ==> Geometry <==

    Molecular point group: c1
    Full point group: C1

    Geometry (in Angstrom), charge = 0, multiplicity = 1:

       Center              X                  Y                   Z               Mass       
    ------------   -----------------  -----------------  -----------------  -----------------
         H           -0.091252135444    -2.313744584100     1.106710730483     1.007825032230
         C           -1.585286135444    -0.721990584100     0.733736730483    12.000000000000
         C           -0.556592135444    -1.723084584100     0.295083730483    12.000000000000
         O           -0.222406135444    -1.905372584100    -0.860383269517    15.994914619570
         H           -1.100827135444    -0.063708584100     1.464762730483     1.007825032230
         C           -2.209529135444     0.074646415900    -0.398030269517    12.000000000000
         H           -1.419613135444     0.572176415900    -0.961848269517     1.007825032230
         H           -2.692731135444    -0.612813584100    -1.093732269517     1.007825032230
         H           -2.345891135444    -1.268499584100     1.303630730483     1.007825032230
         C           -3.211372135444     1.097669415900     0.121105730483    12.000000000000
         H           -4.017043135444     0.611917415900     0.673239730483     1.007825032230
         H           -2.728972135444     1.808605415900     0.793452730483     1.007825032230
         H           -3.658906135444     1.662303415900    -0.695767269517     1.007825032230
         C            3.080847864556    -0.793749584100     0.090307730483    12.000000000000
         H            3.889541864556    -0.442013584100    -0.551651269517     1.007825032230
         H            2.460366864556    -1.472772584100    -0.495483269517     1.007825032230
         H            3.526562864556    -1.359174584100     0.908683730483     1.007825032230
         C            2.256049864556     0.380668415900     0.602072730483    12.000000000000
         H            1.470326864556     0.017778415900     1.272659730483     1.007825032230
         H            2.883234864556     1.044622415900     1.203905730483     1.007825032230
         C            1.619340864556     1.180625415900    -0.527543269517    12.000000000000
         H            0.997096864556     0.512847415900    -1.129302269517     1.007825032230
         H            2.408221864556     1.546824415900    -1.190223269517     1.007825032230
         C            0.792271864556     2.354945415900    -0.018791269517    12.000000000000
         H            1.412675864556     3.048549415900     0.550635730483     1.007825032230
         H            0.332992864556     2.910127415900    -0.836823269517     1.007825032230
         H           -0.007504135444     2.012198415900     0.640416730483     1.007825032230

  Running in c1 symmetry.

  Rotational constants: A =      0.05662  B =      0.02884  C =      0.02136 [cm^-1]
  Rotational constants: A =   1697.44762  B =    864.63876  C =    640.44166 [MHz]
  Nuclear repulsion =  471.938697132349603

  Charge       = 0
  Multiplicity = 1
  Electrons    = 74
  Nalpha       = 37
  Nbeta        = 37

  ==> Algorithm <==

  SCF Algorithm Type is DF.
  DIIS enabled.
  MOM disabled.
  Fractional occupation disabled.
  Guess Type is SAD.
  Energy threshold   = 1.00e-08
  Density threshold  = 1.00e-08
  Integral threshold = 0.00e+00

  ==> Primary Basis <==

  Basis Set: JUN-CC-PVTZ
    Blend: JUN-CC-PVTZ
    Number of shells: 225
    Number of basis function: 603
    Number of Cartesian functions: 675
    Spherical Harmonics?: true
    Max angular momentum: 3

   => Loading Basis Set <=

    Name: (JUN-CC-PVTZ AUX)
    Role: JKFIT
    Keyword: DF_BASIS_SCF
    atoms 1, 5, 7-9, 11-13, 15-17, 19-20, 22-23, 25-27 entry H          line    70 file /home/r08543048/miniconda3/share/psi4/basis/jun-cc-pvtz-jkfit.gbs 
    atoms 2-3, 6, 10, 14, 18, 21, 24                   entry C          line   152 file /home/r08543048/miniconda3/share/psi4/basis/jun-cc-pvtz-jkfit.gbs 
    atoms 4                                            entry O          line   272 file /home/r08543048/miniconda3/share/psi4/basis/jun-cc-pvtz-jkfit.gbs 

  ==> Pre-Iterations <==

   -------------------------------------------------------
    Irrep   Nso     Nmo     Nalpha   Nbeta   Ndocc  Nsocc
   -------------------------------------------------------
     A        603     603       0       0       0       0
   -------------------------------------------------------
    Total     603     603      37      37      37       0
   -------------------------------------------------------

  ==> Integral Setup <==

  ==> DiskDFJK: Density-Fitted J/K Matrices <==

    J tasked:                  Yes
    K tasked:                  Yes
    wK tasked:                  No
    OpenMP threads:              1
    Integrals threads:           1
    Memory [MiB]:            15735
    Algorithm:                Core
    Integral Cache:           SAVE
    Schwarz Cutoff:          1E-12
    Fitting Condition:       1E-10

   => Auxiliary Basis Set <=

  Basis Set: (JUN-CC-PVTZ AUX)
    Blend: JUN-CC-PVTZ-JKFIT
    Number of shells: 441
    Number of basis function: 1395
    Number of Cartesian functions: 1674
    Spherical Harmonics?: true
    Max angular momentum: 4

  Minimum eigenvalue in the overlap matrix is 2.8795208616E-05.
  Using Symmetric Orthogonalization.

  SCF Guess: Superposition of Atomic Densities via on-the-fly atomic UHF.

  ==> Iterations <==

                           Total Energy        Delta E     RMS |[F,P]|

   @DF-RHF iter SAD:  -387.23654910891725   -3.87237e+02   0.00000e+00 
   @DF-RHF iter   1:  -388.01103874124743   -7.74490e-01   1.38731e-03 DIIS
   @DF-RHF iter   2:  -388.32834451542948   -3.17306e-01   7.53003e-04 DIIS
   @DF-RHF iter   3:  -388.41671981675074   -8.83753e-02   1.61881e-04 DIIS
   @DF-RHF iter   4:  -388.42261152036781   -5.89170e-03   7.70138e-05 DIIS
   @DF-RHF iter   5:  -388.42376405576056   -1.15254e-03   1.15302e-05 DIIS
   @DF-RHF iter   6:  -388.42381866365355   -5.46079e-05   4.59389e-06 DIIS
   @DF-RHF iter   7:  -388.42382615469035   -7.49104e-06   1.76998e-06 DIIS
   @DF-RHF iter   8:  -388.42382767721404   -1.52252e-06   6.57199e-07 DIIS
   @DF-RHF iter   9:  -388.42382792884530   -2.51631e-07   1.55504e-07 DIIS
   @DF-RHF iter  10:  -388.42382794285231   -1.40070e-08   4.62404e-08 DIIS
   @DF-RHF iter  11:  -388.42382794374407   -8.91760e-10   1.34877e-08 DIIS
   @DF-RHF iter  12:  -388.42382794384804   -1.03967e-10   5.78572e-09 DIIS
  Energy and wave function converged.


  ==> Post-Iterations <==

    Orbital Energies [Eh]
    ---------------------

    Doubly Occupied:                                                      

       1A    -20.557872     2A    -11.334039     3A    -11.242547  
       4A    -11.225421     5A    -11.218184     6A    -11.213639  
       7A    -11.209744     8A    -11.209085     9A    -11.201493  
      10A     -1.389599    11A     -1.084391    12A     -1.070070  
      13A     -0.979376    14A     -0.977965    15A     -0.858795  
      16A     -0.849577    17A     -0.786448    18A     -0.771942  
      19A     -0.675494    20A     -0.659082    21A     -0.636304  
      22A     -0.630116    23A     -0.583204    24A     -0.574579  
      25A     -0.572229    26A     -0.570096    27A     -0.562360  
      28A     -0.513591    29A     -0.512409    30A     -0.504217  
      31A     -0.492470    32A     -0.491870    33A     -0.482828  
      34A     -0.467380    35A     -0.457278    36A     -0.454139  
      37A     -0.421941  

    Virtual:                                                              

      38A      0.042612    39A      0.049236    40A      0.055881  
      41A      0.056806    42A      0.065191    43A      0.072666  
      44A      0.073914    45A      0.083407    46A      0.086500  
      47A      0.093165    48A      0.103068    49A      0.106487  
      50A      0.114073    51A      0.117045    52A      0.118879  
      53A      0.123590    54A      0.130760    55A      0.132051  
      56A      0.139949    57A      0.145236    58A      0.148803  
      59A      0.159453    60A      0.166814    61A      0.173795  
      62A      0.178325    63A      0.182873    64A      0.185994  
      65A      0.192869    66A      0.203656    67A      0.206951  
      68A      0.214667    69A      0.221117    70A      0.232067  
      71A      0.239256    72A      0.247982    73A      0.256639  
      74A      0.264629    75A      0.279248    76A      0.279930  
      77A      0.281773    78A      0.291901    79A      0.293099  
      80A      0.302126    81A      0.303077    82A      0.308924  
      83A      0.310922    84A      0.317733    85A      0.324610  
      86A      0.326478    87A      0.331749    88A      0.337748  
      89A      0.342194    90A      0.347193    91A      0.347699  
      92A      0.352451    93A      0.355340    94A      0.361043  
      95A      0.368060    96A      0.372169    97A      0.373787  
      98A      0.385566    99A      0.396157   100A      0.397781  
     101A      0.404179   102A      0.406631   103A      0.409130  
     104A      0.415093   105A      0.418802   106A      0.422658  
     107A      0.432477   108A      0.441088   109A      0.449896  
     110A      0.459365   111A      0.463822   112A      0.474548  
     113A      0.480329   114A      0.482406   115A      0.491969  
     116A      0.502229   117A      0.507239   118A      0.514889  
     119A      0.526624   120A      0.532292   121A      0.535381  
     122A      0.538081   123A      0.548320   124A      0.548473  
     125A      0.557863   126A      0.559651   127A      0.565837  
     128A      0.573280   129A      0.581440   130A      0.589523  
     131A      0.604155   132A      0.606310   133A      0.612987  
     134A      0.615659   135A      0.620484   136A      0.634103  
     137A      0.644162   138A      0.651427   139A      0.660617  
     140A      0.675877   141A      0.682974   142A      0.692300  
     143A      0.703788   144A      0.705625   145A      0.711211  
     146A      0.723903   147A      0.727813   148A      0.745637  
     149A      0.751120   150A      0.759762   151A      0.769267  
     152A      0.774771   153A      0.776380   154A      0.784384  
     155A      0.793222   156A      0.801217   157A      0.808919  
     158A      0.824183   159A      0.825201   160A      0.832289  
     161A      0.837680   162A      0.843072   163A      0.844489  
     164A      0.851902   165A      0.859623   166A      0.861955  
     167A      0.865387   168A      0.873293   169A      0.876348  
     170A      0.880635   171A      0.886689   172A      0.901841  
     173A      0.905103   174A      0.909291   175A      0.918956  
     176A      0.932407   177A      0.940263   178A      0.942377  
     179A      0.953717   180A      0.971844   181A      0.975136  
     182A      0.992824   183A      1.004604   184A      1.008215  
     185A      1.011592   186A      1.030611   187A      1.039526  
     188A      1.043631   189A      1.053155   190A      1.060503  
     191A      1.086482   192A      1.105274   193A      1.122783  
     194A      1.124388   195A      1.142848   196A      1.144514  
     197A      1.159659   198A      1.178318   199A      1.188330  
     200A      1.191911   201A      1.211304   202A      1.215457  
     203A      1.219635   204A      1.227756   205A      1.237970  
     206A      1.255761   207A      1.267759   208A      1.276858  
     209A      1.287440   210A      1.295340   211A      1.303590  
     212A      1.314680   213A      1.329720   214A      1.336445  
     215A      1.346835   216A      1.360317   217A      1.367076  
     218A      1.371846   219A      1.376684   220A      1.383267  
     221A      1.392215   222A      1.399302   223A      1.407953  
     224A      1.419441   225A      1.430268   226A      1.434608  
     227A      1.443844   228A      1.459828   229A      1.467199  
     230A      1.473280   231A      1.481518   232A      1.484228  
     233A      1.501291   234A      1.506760   235A      1.516008  
     236A      1.523578   237A      1.526243   238A      1.537766  
     239A      1.543573   240A      1.554696   241A      1.564803  
     242A      1.577360   243A      1.589000   244A      1.593857  
     245A      1.597299   246A      1.602134   247A      1.605113  
     248A      1.614093   249A      1.617918   250A      1.631113  
     251A      1.635648   252A      1.640804   253A      1.648689  
     254A      1.661704   255A      1.665035   256A      1.680597  
     257A      1.696136   258A      1.697944   259A      1.712566  
     260A      1.725853   261A      1.730156   262A      1.741029  
     263A      1.766868   264A      1.777869   265A      1.785183  
     266A      1.788270   267A      1.809210   268A      1.810821  
     269A      1.831865   270A      1.845286   271A      1.855115  
     272A      1.870313   273A      1.894762   274A      1.901632  
     275A      1.911393   276A      1.917122   277A      1.931445  
     278A      1.936478   279A      1.941374   280A      1.951669  
     281A      1.965358   282A      1.987804   283A      2.006789  
     284A      2.011639   285A      2.023522   286A      2.035543  
     287A      2.061636   288A      2.068610   289A      2.094595  
     290A      2.186908   291A      2.225243   292A      2.369755  
     293A      2.432904   294A      2.441314   295A      2.484469  
     296A      2.588660   297A      2.719782   298A      2.729540  
     299A      2.746090   300A      2.751337   301A      2.768889  
     302A      2.779288   303A      2.809871   304A      2.824293  
     305A      2.836059   306A      2.852627   307A      2.874077  
     308A      2.876455   309A      2.883358   310A      2.892971  
     311A      2.905057   312A      2.917597   313A      2.924052  
     314A      2.932128   315A      2.941703   316A      2.947011  
     317A      2.979503   318A      3.003356   319A      3.006298  
     320A      3.017980   321A      3.031569   322A      3.034704  
     323A      3.045408   324A      3.054918   325A      3.094559  
     326A      3.105657   327A      3.117498   328A      3.122827  
     329A      3.129310   330A      3.137846   331A      3.141444  
     332A      3.144868   333A      3.149425   334A      3.155047  
     335A      3.163290   336A      3.170406   337A      3.187854  
     338A      3.210228   339A      3.226029   340A      3.230815  
     341A      3.247136   342A      3.268530   343A      3.286282  
     344A      3.293296   345A      3.300482   346A      3.307894  
     347A      3.312502   348A      3.322424   349A      3.326704  
     350A      3.336543   351A      3.343381   352A      3.357200  
     353A      3.368993   354A      3.372611   355A      3.383599  
     356A      3.401048   357A      3.404777   358A      3.418041  
     359A      3.420887   360A      3.429705   361A      3.433486  
     362A      3.435216   363A      3.445148   364A      3.462660  
     365A      3.466217   366A      3.470943   367A      3.480215  
     368A      3.487398   369A      3.491889   370A      3.501785  
     371A      3.508592   372A      3.510261   373A      3.521482  
     374A      3.528821   375A      3.537266   376A      3.540760  
     377A      3.553326   378A      3.565101   379A      3.565227  
     380A      3.574358   381A      3.589135   382A      3.591987  
     383A      3.601745   384A      3.612619   385A      3.620253  
     386A      3.631438   387A      3.635601   388A      3.642990  
     389A      3.654185   390A      3.663074   391A      3.676189  
     392A      3.680125   393A      3.695328   394A      3.702904  
     395A      3.729756   396A      3.744651   397A      3.756479  
     398A      3.762505   399A      3.770034   400A      3.776541  
     401A      3.798886   402A      3.808299   403A      3.819134  
     404A      3.832503   405A      3.842222   406A      3.852705  
     407A      3.865330   408A      3.875588   409A      3.884009  
     410A      3.892702   411A      3.902670   412A      3.919564  
     413A      3.937667   414A      3.943168   415A      3.950245  
     416A      3.953549   417A      3.962250   418A      3.969367  
     419A      3.980822   420A      3.995384   421A      3.998746  
     422A      4.007444   423A      4.014533   424A      4.031485  
     425A      4.046536   426A      4.059606   427A      4.091849  
     428A      4.106710   429A      4.124405   430A      4.151550  
     431A      4.168804   432A      4.182192   433A      4.189038  
     434A      4.199553   435A      4.212410   436A      4.216963  
     437A      4.223692   438A      4.239663   439A      4.259423  
     440A      4.261028   441A      4.272233   442A      4.279402  
     443A      4.287662   444A      4.297277   445A      4.309690  
     446A      4.313993   447A      4.318873   448A      4.334762  
     449A      4.342640   450A      4.350865   451A      4.360380  
     452A      4.365964   453A      4.371859   454A      4.383332  
     455A      4.397835   456A      4.400246   457A      4.409082  
     458A      4.426947   459A      4.435616   460A      4.454338  
     461A      4.462004   462A      4.465872   463A      4.474429  
     464A      4.496872   465A      4.503273   466A      4.515885  
     467A      4.524768   468A      4.530418   469A      4.540083  
     470A      4.545478   471A      4.551147   472A      4.560637  
     473A      4.578454   474A      4.581198   475A      4.601561  
     476A      4.614328   477A      4.622830   478A      4.628228  
     479A      4.635661   480A      4.646056   481A      4.658452  
     482A      4.672072   483A      4.678137   484A      4.690097  
     485A      4.700081   486A      4.713728   487A      4.727084  
     488A      4.751771   489A      4.754505   490A      4.787104  
     491A      4.819853   492A      4.833881   493A      4.841251  
     494A      4.848982   495A      4.853186   496A      4.874745  
     497A      4.876393   498A      4.897418   499A      4.915967  
     500A      4.924249   501A      4.931605   502A      4.961247  
     503A      5.002100   504A      5.011910   505A      5.042106  
     506A      5.061516   507A      5.068590   508A      5.097177  
     509A      5.108389   510A      5.125054   511A      5.126492  
     512A      5.137625   513A      5.143420   514A      5.149810  
     515A      5.163665   516A      5.191450   517A      5.261888  
     518A      5.265997   519A      5.274786   520A      5.281811  
     521A      5.286485   522A      5.296802   523A      5.306143  
     524A      5.318547   525A      5.325511   526A      5.332195  
     527A      5.362214   528A      5.365685   529A      5.370824  
     530A      5.372480   531A      5.381736   532A      5.405533  
     533A      5.420763   534A      5.441207   535A      5.446648  
     536A      5.465017   537A      5.478518   538A      5.520085  
     539A      5.552365   540A      5.561175   541A      5.579381  
     542A      5.593259   543A      5.620340   544A      5.633217  
     545A      5.658751   546A      5.670173   547A      5.678400  
     548A      5.703269   549A      5.708361   550A      5.754391  
     551A      5.761218   552A      5.764235   553A      5.768391  
     554A      5.790376   555A      5.805105   556A      5.809530  
     557A      5.824670   558A      5.849554   559A      5.867020  
     560A      5.892048   561A      5.904690   562A      5.916458  
     563A      5.920978   564A      5.943884   565A      5.945336  
     566A      5.969297   567A      5.974600   568A      5.992685  
     569A      6.005301   570A      6.031844   571A      6.088573  
     572A      6.122355   573A      6.135696   574A      6.202994  
     575A      6.253319   576A      6.325182   577A      6.498346  
     578A      6.510944   579A      6.523230   580A      6.532631  
     581A      6.559117   582A      6.565439   583A      6.587809  
     584A      6.615200   585A      6.628285   586A      6.659726  
     587A      6.805988   588A      6.991323   589A      7.283664  
     590A      7.298026   591A      7.321515   592A      7.460365  
     593A      7.638133   594A      7.734096   595A     12.675174  
     596A     13.731438   597A     13.991791   598A     14.275113  
     599A     14.363318   600A     14.482737   601A     14.591321  
     602A     14.613520   603A     14.805661  

    Final Occupation by Irrep:
              A 
    DOCC [    37 ]

  @DF-RHF Final Energy:  -388.42382794384804

   => Energetics <=

    Nuclear Repulsion Energy =            471.9386971323496027
    One-Electron Energy =               -1461.8415054972017515
    Two-Electron Energy =                 601.4789804210040529
    Total Energy =                       -388.4238279438480959

Computation Completed


Properties will be evaluated at   0.000000,   0.000000,   0.000000 [a0]

Properties computed using the SCF density matrix

  Nuclear Dipole Moment: [e a0]
     X:     1.2348      Y:     7.6924      Z:     2.7738

  Electronic Dipole Moment: [e a0]
     X:    -1.7137      Y:    -7.3824      Z:    -1.8365

  Dipole Moment: [e a0]
     X:    -0.4789      Y:     0.3100      Z:     0.9374     Total:     1.0973

  Dipole Moment: [D]
     X:    -1.2173      Y:     0.7879      Z:     2.3826     Total:     2.7891


*** tstop() called on r282 at Fri Sep 10 12:39:37 2021
Module time:
	user time   =     124.66 seconds =       2.08 minutes
	system time =       2.43 seconds =       0.04 minutes
	total time  =        127 seconds =       2.12 minutes
Total time:
	user time   =     124.66 seconds =       2.08 minutes
	system time =       2.43 seconds =       0.04 minutes
	total time  =        127 seconds =       2.12 minutes

  //>>>>>>>>>>>>>>>>>>>>>>>>>>>>>>>>>>>//
  //            Monomer A HF           //
  //<<<<<<<<<<<<<<<<<<<<<<<<<<<<<<<<<<<//


*** tstart() called on r282
*** at Fri Sep 10 12:39:37 2021

   => Loading Basis Set <=

    Name: JUN-CC-PVTZ
    Role: ORBITAL
    Keyword: BASIS
    atoms 1, 5, 7-9, 11-13, 15-17, 19-20, 22-23, 25-27 entry H          line    36 file /home/r08543048/miniconda3/share/psi4/basis/jun-cc-pvtz.gbs 
    atoms 2-3, 6, 10, 14, 18, 21, 24                   entry C          line   217 file /home/r08543048/miniconda3/share/psi4/basis/jun-cc-pvtz.gbs 
    atoms 4                                            entry O          line   305 file /home/r08543048/miniconda3/share/psi4/basis/jun-cc-pvtz.gbs 


         ---------------------------------------------------------
                                   SCF
               by Justin Turney, Rob Parrish, Andy Simmonett
                          and Daniel G. A. Smith
                              RHF Reference
                        1 Threads,  20980 MiB Core
         ---------------------------------------------------------

  ==> Geometry <==

    Molecular point group: c1
    Full point group: C1

    Geometry (in Angstrom), charge = 0, multiplicity = 1:

       Center              X                  Y                   Z               Mass       
    ------------   -----------------  -----------------  -----------------  -----------------
         H           -0.091252135444    -2.313744584100     1.106710730483     1.007825032230
         C           -1.585286135444    -0.721990584100     0.733736730483    12.000000000000
         C           -0.556592135444    -1.723084584100     0.295083730483    12.000000000000
         O           -0.222406135444    -1.905372584100    -0.860383269517    15.994914619570
         H           -1.100827135444    -0.063708584100     1.464762730483     1.007825032230
         C           -2.209529135444     0.074646415900    -0.398030269517    12.000000000000
         H           -1.419613135444     0.572176415900    -0.961848269517     1.007825032230
         H           -2.692731135444    -0.612813584100    -1.093732269517     1.007825032230
         H           -2.345891135444    -1.268499584100     1.303630730483     1.007825032230
         C           -3.211372135444     1.097669415900     0.121105730483    12.000000000000
         H           -4.017043135444     0.611917415900     0.673239730483     1.007825032230
         H           -2.728972135444     1.808605415900     0.793452730483     1.007825032230
         H           -3.658906135444     1.662303415900    -0.695767269517     1.007825032230
      Gh(C)           3.080847864556    -0.793749584100     0.090307730483    12.000000000000
      Gh(H)           3.889541864556    -0.442013584100    -0.551651269517     1.007825032230
      Gh(H)           2.460366864556    -1.472772584100    -0.495483269517     1.007825032230
      Gh(H)           3.526562864556    -1.359174584100     0.908683730483     1.007825032230
      Gh(C)           2.256049864556     0.380668415900     0.602072730483    12.000000000000
      Gh(H)           1.470326864556     0.017778415900     1.272659730483     1.007825032230
      Gh(H)           2.883234864556     1.044622415900     1.203905730483     1.007825032230
      Gh(C)           1.619340864556     1.180625415900    -0.527543269517    12.000000000000
      Gh(H)           0.997096864556     0.512847415900    -1.129302269517     1.007825032230
      Gh(H)           2.408221864556     1.546824415900    -1.190223269517     1.007825032230
      Gh(C)           0.792271864556     2.354945415900    -0.018791269517    12.000000000000
      Gh(H)           1.412675864556     3.048549415900     0.550635730483     1.007825032230
      Gh(H)           0.332992864556     2.910127415900    -0.836823269517     1.007825032230
      Gh(H)          -0.007504135444     2.012198415900     0.640416730483     1.007825032230

  Running in c1 symmetry.

  Rotational constants: A =      0.05662  B =      0.02884  C =      0.02136 [cm^-1]
  Rotational constants: A =   1697.44762  B =    864.63876  C =    640.44166 [MHz]
  Nuclear repulsion =  172.401836634508811

  Charge       = 0
  Multiplicity = 1
  Electrons    = 40
  Nalpha       = 20
  Nbeta        = 20

  ==> Algorithm <==

  SCF Algorithm Type is DF.
  DIIS enabled.
  MOM disabled.
  Fractional occupation disabled.
  Guess Type is SAD.
  Energy threshold   = 1.00e-08
  Density threshold  = 1.00e-08
  Integral threshold = 0.00e+00

  ==> Primary Basis <==

  Basis Set: JUN-CC-PVTZ
    Blend: JUN-CC-PVTZ
    Number of shells: 225
    Number of basis function: 603
    Number of Cartesian functions: 675
    Spherical Harmonics?: true
    Max angular momentum: 3

   => Loading Basis Set <=

    Name: (JUN-CC-PVTZ AUX)
    Role: JKFIT
    Keyword: DF_BASIS_SCF
    atoms 1, 5, 7-9, 11-13, 15-17, 19-20, 22-23, 25-27 entry H          line    70 file /home/r08543048/miniconda3/share/psi4/basis/jun-cc-pvtz-jkfit.gbs 
    atoms 2-3, 6, 10, 14, 18, 21, 24                   entry C          line   152 file /home/r08543048/miniconda3/share/psi4/basis/jun-cc-pvtz-jkfit.gbs 
    atoms 4                                            entry O          line   272 file /home/r08543048/miniconda3/share/psi4/basis/jun-cc-pvtz-jkfit.gbs 

  ==> Pre-Iterations <==

   -------------------------------------------------------
    Irrep   Nso     Nmo     Nalpha   Nbeta   Ndocc  Nsocc
   -------------------------------------------------------
     A        603     603       0       0       0       0
   -------------------------------------------------------
    Total     603     603      20      20      20       0
   -------------------------------------------------------

  ==> Integral Setup <==

  ==> DiskDFJK: Density-Fitted J/K Matrices <==

    J tasked:                  Yes
    K tasked:                  Yes
    wK tasked:                  No
    OpenMP threads:              1
    Integrals threads:           1
    Memory [MiB]:            15735
    Algorithm:                Core
    Integral Cache:           LOAD
    Schwarz Cutoff:          1E-12
    Fitting Condition:       1E-10

   => Auxiliary Basis Set <=

  Basis Set: (JUN-CC-PVTZ AUX)
    Blend: JUN-CC-PVTZ-JKFIT
    Number of shells: 441
    Number of basis function: 1395
    Number of Cartesian functions: 1674
    Spherical Harmonics?: true
    Max angular momentum: 4

  Minimum eigenvalue in the overlap matrix is 2.8795208616E-05.
  Using Symmetric Orthogonalization.

  SCF Guess: Superposition of Atomic Densities via on-the-fly atomic UHF.

  ==> Iterations <==

                           Total Energy        Delta E     RMS |[F,P]|

   @DF-RHF iter SAD:  -230.24323074742335   -2.30243e+02   0.00000e+00 
   @DF-RHF iter   1:  -230.86142714672687   -6.18196e-01   1.02254e-03 DIIS
   @DF-RHF iter   2:  -231.01349155126414   -1.52064e-01   6.27154e-04 DIIS
   @DF-RHF iter   3:  -231.06781721099841   -5.43257e-02   1.23360e-04 DIIS
   @DF-RHF iter   4:  -231.07124702130716   -3.42981e-03   5.29282e-05 DIIS
   @DF-RHF iter   5:  -231.07190299264033   -6.55971e-04   9.26140e-06 DIIS
   @DF-RHF iter   6:  -231.07194297633316   -3.99837e-05   3.82712e-06 DIIS
   @DF-RHF iter   7:  -231.07194925524558   -6.27891e-06   1.68005e-06 DIIS
   @DF-RHF iter   8:  -231.07195057633663   -1.32109e-06   5.48699e-07 DIIS
   @DF-RHF iter   9:  -231.07195075377734   -1.77441e-07   1.02017e-07 DIIS
   @DF-RHF iter  10:  -231.07195075960237   -5.82503e-09   2.66549e-08 DIIS
   @DF-RHF iter  11:  -231.07195075985751   -2.55142e-10   7.65625e-09 DIIS
  Energy and wave function converged.


  ==> Post-Iterations <==

    Orbital Energies [Eh]
    ---------------------

    Doubly Occupied:                                                      

       1A    -20.557144     2A    -11.332619     3A    -11.242383  
       4A    -11.225823     5A    -11.218548     6A     -1.387646  
       7A     -1.083780     8A     -0.978051     9A     -0.849062  
      10A     -0.770911    11A     -0.673714    12A     -0.651039  
      13A     -0.633296    14A     -0.570050    15A     -0.568728  
      16A     -0.512977    17A     -0.502263    18A     -0.492197  
      19A     -0.480479    20A     -0.420808  

    Virtual:                                                              

      21A      0.030101    22A      0.042647    23A      0.045940  
      24A      0.053486    25A      0.060735    26A      0.069296  
      27A      0.070704    28A      0.080867    29A      0.083621  
      30A      0.089278    31A      0.098112    32A      0.102533  
      33A      0.103771    34A      0.115170    35A      0.116537  
      36A      0.117841    37A      0.124009    38A      0.129998  
      39A      0.134344    40A      0.137214    41A      0.141815  
      42A      0.142937    43A      0.152498    44A      0.165656  
      45A      0.167031    46A      0.172969    47A      0.175840  
      48A      0.181409    49A      0.185274    50A      0.193050  
      51A      0.198617    52A      0.204182    53A      0.213490  
      54A      0.226216    55A      0.242941    56A      0.247386  
      57A      0.257240    58A      0.270627    59A      0.277278  
      60A      0.282766    61A      0.285611    62A      0.290005  
      63A      0.290963    64A      0.295061    65A      0.297814  
      66A      0.302840    67A      0.314600    68A      0.321004  
      69A      0.327386    70A      0.329022    71A      0.336206  
      72A      0.338440    73A      0.345858    74A      0.351473  
      75A      0.359084    76A      0.360009    77A      0.362580  
      78A      0.374552    79A      0.376824    80A      0.386082  
      81A      0.388845    82A      0.390321    83A      0.396151  
      84A      0.404171    85A      0.409203    86A      0.415171  
      87A      0.415480    88A      0.418738    89A      0.430042  
      90A      0.439390    91A      0.443216    92A      0.452778  
      93A      0.454898    94A      0.475345    95A      0.476635  
      96A      0.490677    97A      0.495716    98A      0.500265  
      99A      0.506768   100A      0.518698   101A      0.524653  
     102A      0.528749   103A      0.533002   104A      0.538460  
     105A      0.544033   106A      0.548328   107A      0.561257  
     108A      0.564911   109A      0.573322   110A      0.577073  
     111A      0.584057   112A      0.590561   113A      0.597172  
     114A      0.607168   115A      0.612055   116A      0.615503  
     117A      0.619977   118A      0.625539   119A      0.646437  
     120A      0.649194   121A      0.652311   122A      0.655610  
     123A      0.663578   124A      0.669945   125A      0.683157  
     126A      0.684900   127A      0.688414   128A      0.697203  
     129A      0.698452   130A      0.710466   131A      0.712965  
     132A      0.724979   133A      0.728270   134A      0.737705  
     135A      0.745954   136A      0.762501   137A      0.772469  
     138A      0.784805   139A      0.789366   140A      0.801328  
     141A      0.811348   142A      0.813520   143A      0.836231  
     144A      0.840362   145A      0.845770   146A      0.850615  
     147A      0.863564   148A      0.867541   149A      0.887729  
     150A      0.893090   151A      0.906319   152A      0.913956  
     153A      0.931231   154A      0.935192   155A      0.945232  
     156A      0.968587   157A      0.975810   158A      1.000308  
     159A      1.007349   160A      1.025824   161A      1.039349  
     162A      1.060184   163A      1.064420   164A      1.082735  
     165A      1.087812   166A      1.089409   167A      1.111924  
     168A      1.118179   169A      1.124660   170A      1.134587  
     171A      1.150628   172A      1.164032   173A      1.169685  
     174A      1.178332   175A      1.191632   176A      1.194825  
     177A      1.204661   178A      1.210223   179A      1.215734  
     180A      1.233539   181A      1.237620   182A      1.240954  
     183A      1.246815   184A      1.263518   185A      1.268536  
     186A      1.273123   187A      1.280114   188A      1.291110  
     189A      1.300628   190A      1.305805   191A      1.312688  
     192A      1.321300   193A      1.331370   194A      1.338388  
     195A      1.349459   196A      1.351793   197A      1.359056  
     198A      1.369982   199A      1.379740   200A      1.389519  
     201A      1.394849   202A      1.398947   203A      1.405904  
     204A      1.413625   205A      1.419090   206A      1.437184  
     207A      1.439146   208A      1.439929   209A      1.452642  
     210A      1.457243   211A      1.463563   212A      1.477040  
     213A      1.490327   214A      1.501976   215A      1.506670  
     216A      1.515182   217A      1.530407   218A      1.534336  
     219A      1.540274   220A      1.548363   221A      1.552380  
     222A      1.563142   223A      1.568708   224A      1.577398  
     225A      1.590770   226A      1.601622   227A      1.606704  
     228A      1.610331   229A      1.619737   230A      1.621778  
     231A      1.630296   232A      1.635162   233A      1.649609  
     234A      1.661032   235A      1.666187   236A      1.674574  
     237A      1.676230   238A      1.699415   239A      1.705512  
     240A      1.715196   241A      1.730189   242A      1.751455  
     243A      1.753516   244A      1.758457   245A      1.769287  
     246A      1.776752   247A      1.789173   248A      1.802178  
     249A      1.827134   250A      1.844046   251A      1.854410  
     252A      1.865812   253A      1.879200   254A      1.887278  
     255A      1.900492   256A      1.915144   257A      1.921345  
     258A      1.942134   259A      1.954467   260A      1.963535  
     261A      1.975253   262A      2.001226   263A      2.016727  
     264A      2.032525   265A      2.035099   266A      2.055315  
     267A      2.108308   268A      2.115020   269A      2.140477  
     270A      2.174135   271A      2.181761   272A      2.206618  
     273A      2.249109   274A      2.265428   275A      2.311139  
     276A      2.335169   277A      2.343359   278A      2.377761  
     279A      2.407817   280A      2.429358   281A      2.449230  
     282A      2.455522   283A      2.465328   284A      2.489034  
     285A      2.497496   286A      2.511385   287A      2.538966  
     288A      2.596433   289A      2.627714   290A      2.643051  
     291A      2.678719   292A      2.686759   293A      2.745589  
     294A      2.761845   295A      2.778277   296A      2.824504  
     297A      2.862004   298A      2.880875   299A      2.888373  
     300A      2.905436   301A      2.928042   302A      2.949793  
     303A      2.996975   304A      3.011470   305A      3.044898  
     306A      3.052376   307A      3.086406   308A      3.117121  
     309A      3.122960   310A      3.144434   311A      3.145413  
     312A      3.151325   313A      3.185569   314A      3.226791  
     315A      3.282197   316A      3.292047   317A      3.309829  
     318A      3.325347   319A      3.342360   320A      3.349953  
     321A      3.366381   322A      3.392390   323A      3.413071  
     324A      3.430925   325A      3.441172   326A      3.452826  
     327A      3.469780   328A      3.479436   329A      3.493167  
     330A      3.503769   331A      3.513331   332A      3.520517  
     333A      3.533832   334A      3.539813   335A      3.549112  
     336A      3.557127   337A      3.564593   338A      3.572538  
     339A      3.578140   340A      3.581498   341A      3.595592  
     342A      3.604326   343A      3.612909   344A      3.621996  
     345A      3.627892   346A      3.643489   347A      3.652245  
     348A      3.660322   349A      3.672412   350A      3.685591  
     351A      3.693691   352A      3.698306   353A      3.712441  
     354A      3.738635   355A      3.758538   356A      3.770738  
     357A      3.775450   358A      3.790858   359A      3.795569  
     360A      3.805544   361A      3.818444   362A      3.832235  
     363A      3.849163   364A      3.852707   365A      3.858079  
     366A      3.867495   367A      3.876094   368A      3.885001  
     369A      3.903302   370A      3.907398   371A      3.911189  
     372A      3.922025   373A      3.929021   374A      3.932020  
     375A      3.939009   376A      3.948244   377A      3.957715  
     378A      3.966847   379A      3.977345   380A      3.995929  
     381A      4.008574   382A      4.022610   383A      4.034601  
     384A      4.052190   385A      4.083532   386A      4.106168  
     387A      4.112852   388A      4.127265   389A      4.138652  
     390A      4.159749   391A      4.171361   392A      4.173056  
     393A      4.189695   394A      4.190227   395A      4.203255  
     396A      4.204733   397A      4.224716   398A      4.260775  
     399A      4.266142   400A      4.275199   401A      4.290347  
     402A      4.303791   403A      4.306864   404A      4.317576  
     405A      4.332951   406A      4.335869   407A      4.349797  
     408A      4.364851   409A      4.366289   410A      4.379472  
     411A      4.396178   412A      4.397946   413A      4.418513  
     414A      4.430840   415A      4.446901   416A      4.455776  
     417A      4.475200   418A      4.482042   419A      4.497965  
     420A      4.499474   421A      4.503526   422A      4.519454  
     423A      4.528055   424A      4.535629   425A      4.553735  
     426A      4.558861   427A      4.563253   428A      4.569629  
     429A      4.581786   430A      4.589427   431A      4.600027  
     432A      4.607846   433A      4.621849   434A      4.628380  
     435A      4.631032   436A      4.643201   437A      4.650402  
     438A      4.666081   439A      4.679420   440A      4.680602  
     441A      4.697995   442A      4.704516   443A      4.718087  
     444A      4.724901   445A      4.725560   446A      4.737096  
     447A      4.758803   448A      4.766928   449A      4.774479  
     450A      4.786811   451A      4.790653   452A      4.809436  
     453A      4.813895   454A      4.830637   455A      4.835547  
     456A      4.846833   457A      4.857653   458A      4.865116  
     459A      4.873268   460A      4.890879   461A      4.896718  
     462A      4.900064   463A      4.908144   464A      4.912433  
     465A      4.924047   466A      4.935108   467A      4.947853  
     468A      4.951868   469A      4.968537   470A      4.978351  
     471A      4.984643   472A      4.986528   473A      4.995984  
     474A      5.007806   475A      5.020578   476A      5.028499  
     477A      5.037809   478A      5.041499   479A      5.047389  
     480A      5.068021   481A      5.086805   482A      5.097257  
     483A      5.109564   484A      5.119840   485A      5.128971  
     486A      5.141410   487A      5.153597   488A      5.173589  
     489A      5.195494   490A      5.197263   491A      5.210999  
     492A      5.236386   493A      5.261702   494A      5.284095  
     495A      5.292362   496A      5.295636   497A      5.303285  
     498A      5.325568   499A      5.345643   500A      5.364650  
     501A      5.368634   502A      5.383107   503A      5.398786  
     504A      5.410933   505A      5.435464   506A      5.440143  
     507A      5.465556   508A      5.486717   509A      5.516114  
     510A      5.524543   511A      5.556591   512A      5.564454  
     513A      5.580918   514A      5.599451   515A      5.622412  
     516A      5.640179   517A      5.669186   518A      5.672415  
     519A      5.693377   520A      5.706645   521A      5.718409  
     522A      5.759929   523A      5.764811   524A      5.799329  
     525A      5.812601   526A      5.821215   527A      5.834004  
     528A      5.853513   529A      5.888388   530A      5.904404  
     531A      5.918703   532A      5.943542   533A      5.954714  
     534A      5.973284   535A      5.995697   536A      6.031140  
     537A      6.040363   538A      6.070643   539A      6.114313  
     540A      6.121120   541A      6.137788   542A      6.142680  
     543A      6.252601   544A      6.270306   545A      6.327132  
     546A      6.329472   547A      6.359125   548A      6.385797  
     549A      6.400143   550A      6.407665   551A      6.437283  
     552A      6.480097   553A      6.487567   554A      6.517207  
     555A      6.519472   556A      6.527422   557A      6.558952  
     558A      6.599019   559A      6.619471   560A      6.743430  
     561A      6.795193   562A      6.805567   563A      6.818981  
     564A      6.949929   565A      6.992319   566A      7.056610  
     567A      7.269994   568A      7.286675   569A      7.298984  
     570A      7.322977   571A      7.457857   572A      7.518352  
     573A      7.547571   574A      7.589432   575A      7.598610  
     576A      7.603475   577A      7.641855   578A      7.686299  
     579A      7.721124   580A      7.742458   581A      7.753344  
     582A      7.813783   583A      7.816952   584A      7.850401  
     585A      7.937398   586A      7.948814   587A      8.122304  
     588A      8.315833   589A      8.457777   590A      8.654893  
     591A      9.604833   592A      9.699649   593A      9.919569  
     594A      9.956418   595A     12.689260   596A     13.979960  
     597A     14.375029   598A     14.510669   599A     14.590534  
     600A     43.859430   601A     45.475772   602A     45.665455  
     603A     45.914645  

    Final Occupation by Irrep:
              A 
    DOCC [    20 ]

  @DF-RHF Final Energy:  -231.07195075985751

   => Energetics <=

    Nuclear Repulsion Energy =            172.4018366345088111
    One-Electron Energy =                -654.6445266359617108
    Two-Electron Energy =                 251.1707392415953848
    Total Energy =                       -231.0719507598575149

Computation Completed


Properties will be evaluated at   0.000000,   0.000000,   0.000000 [a0]

Properties computed using the SCF density matrix

  Nuclear Dipole Moment: [e a0]
     X:  -123.2312      Y:   -42.4873      Z:     0.4134

  Electronic Dipole Moment: [e a0]
     X:   122.7353      Y:    42.8507      Z:     0.6396

  Dipole Moment: [e a0]
     X:    -0.4959      Y:     0.3634      Z:     1.0529     Total:     1.2193

  Dipole Moment: [D]
     X:    -1.2604      Y:     0.9237      Z:     2.6763     Total:     3.0991


*** tstop() called on r282 at Fri Sep 10 12:40:44 2021
Module time:
	user time   =      64.98 seconds =       1.08 minutes
	system time =       1.11 seconds =       0.02 minutes
	total time  =         67 seconds =       1.12 minutes
Total time:
	user time   =     189.64 seconds =       3.16 minutes
	system time =       3.54 seconds =       0.06 minutes
	total time  =        194 seconds =       3.23 minutes

  //>>>>>>>>>>>>>>>>>>>>>>>>>>>>>>>>>>>//
  //            Monomer B HF           //
  //<<<<<<<<<<<<<<<<<<<<<<<<<<<<<<<<<<<//


*** tstart() called on r282
*** at Fri Sep 10 12:40:44 2021

   => Loading Basis Set <=

    Name: JUN-CC-PVTZ
    Role: ORBITAL
    Keyword: BASIS
    atoms 1, 5, 7-9, 11-13, 15-17, 19-20, 22-23, 25-27 entry H          line    36 file /home/r08543048/miniconda3/share/psi4/basis/jun-cc-pvtz.gbs 
    atoms 2-3, 6, 10, 14, 18, 21, 24                   entry C          line   217 file /home/r08543048/miniconda3/share/psi4/basis/jun-cc-pvtz.gbs 
    atoms 4                                            entry O          line   305 file /home/r08543048/miniconda3/share/psi4/basis/jun-cc-pvtz.gbs 


         ---------------------------------------------------------
                                   SCF
               by Justin Turney, Rob Parrish, Andy Simmonett
                          and Daniel G. A. Smith
                              RHF Reference
                        1 Threads,  20980 MiB Core
         ---------------------------------------------------------

  ==> Geometry <==

    Molecular point group: c1
    Full point group: C1

    Geometry (in Angstrom), charge = 0, multiplicity = 1:

       Center              X                  Y                   Z               Mass       
    ------------   -----------------  -----------------  -----------------  -----------------
      Gh(H)          -0.091252135444    -2.313744584100     1.106710730483     1.007825032230
      Gh(C)          -1.585286135444    -0.721990584100     0.733736730483    12.000000000000
      Gh(C)          -0.556592135444    -1.723084584100     0.295083730483    12.000000000000
      Gh(O)          -0.222406135444    -1.905372584100    -0.860383269517    15.994914619570
      Gh(H)          -1.100827135444    -0.063708584100     1.464762730483     1.007825032230
      Gh(C)          -2.209529135444     0.074646415900    -0.398030269517    12.000000000000
      Gh(H)          -1.419613135444     0.572176415900    -0.961848269517     1.007825032230
      Gh(H)          -2.692731135444    -0.612813584100    -1.093732269517     1.007825032230
      Gh(H)          -2.345891135444    -1.268499584100     1.303630730483     1.007825032230
      Gh(C)          -3.211372135444     1.097669415900     0.121105730483    12.000000000000
      Gh(H)          -4.017043135444     0.611917415900     0.673239730483     1.007825032230
      Gh(H)          -2.728972135444     1.808605415900     0.793452730483     1.007825032230
      Gh(H)          -3.658906135444     1.662303415900    -0.695767269517     1.007825032230
         C            3.080847864556    -0.793749584100     0.090307730483    12.000000000000
         H            3.889541864556    -0.442013584100    -0.551651269517     1.007825032230
         H            2.460366864556    -1.472772584100    -0.495483269517     1.007825032230
         H            3.526562864556    -1.359174584100     0.908683730483     1.007825032230
         C            2.256049864556     0.380668415900     0.602072730483    12.000000000000
         H            1.470326864556     0.017778415900     1.272659730483     1.007825032230
         H            2.883234864556     1.044622415900     1.203905730483     1.007825032230
         C            1.619340864556     1.180625415900    -0.527543269517    12.000000000000
         H            0.997096864556     0.512847415900    -1.129302269517     1.007825032230
         H            2.408221864556     1.546824415900    -1.190223269517     1.007825032230
         C            0.792271864556     2.354945415900    -0.018791269517    12.000000000000
         H            1.412675864556     3.048549415900     0.550635730483     1.007825032230
         H            0.332992864556     2.910127415900    -0.836823269517     1.007825032230
         H           -0.007504135444     2.012198415900     0.640416730483     1.007825032230

  Running in c1 symmetry.

  Rotational constants: A =      0.05662  B =      0.02884  C =      0.02136 [cm^-1]
  Rotational constants: A =   1697.44762  B =    864.63876  C =    640.44166 [MHz]
  Nuclear repulsion =  131.073517442095692

  Charge       = 0
  Multiplicity = 1
  Electrons    = 34
  Nalpha       = 17
  Nbeta        = 17

  ==> Algorithm <==

  SCF Algorithm Type is DF.
  DIIS enabled.
  MOM disabled.
  Fractional occupation disabled.
  Guess Type is SAD.
  Energy threshold   = 1.00e-08
  Density threshold  = 1.00e-08
  Integral threshold = 0.00e+00

  ==> Primary Basis <==

  Basis Set: JUN-CC-PVTZ
    Blend: JUN-CC-PVTZ
    Number of shells: 225
    Number of basis function: 603
    Number of Cartesian functions: 675
    Spherical Harmonics?: true
    Max angular momentum: 3

   => Loading Basis Set <=

    Name: (JUN-CC-PVTZ AUX)
    Role: JKFIT
    Keyword: DF_BASIS_SCF
    atoms 1, 5, 7-9, 11-13, 15-17, 19-20, 22-23, 25-27 entry H          line    70 file /home/r08543048/miniconda3/share/psi4/basis/jun-cc-pvtz-jkfit.gbs 
    atoms 2-3, 6, 10, 14, 18, 21, 24                   entry C          line   152 file /home/r08543048/miniconda3/share/psi4/basis/jun-cc-pvtz-jkfit.gbs 
    atoms 4                                            entry O          line   272 file /home/r08543048/miniconda3/share/psi4/basis/jun-cc-pvtz-jkfit.gbs 

  ==> Pre-Iterations <==

   -------------------------------------------------------
    Irrep   Nso     Nmo     Nalpha   Nbeta   Ndocc  Nsocc
   -------------------------------------------------------
     A        603     603       0       0       0       0
   -------------------------------------------------------
    Total     603     603      17      17      17       0
   -------------------------------------------------------

  ==> Integral Setup <==

  ==> DiskDFJK: Density-Fitted J/K Matrices <==

    J tasked:                  Yes
    K tasked:                  Yes
    wK tasked:                  No
    OpenMP threads:              1
    Integrals threads:           1
    Memory [MiB]:            15735
    Algorithm:                Core
    Integral Cache:           LOAD
    Schwarz Cutoff:          1E-12
    Fitting Condition:       1E-10

   => Auxiliary Basis Set <=

  Basis Set: (JUN-CC-PVTZ AUX)
    Blend: JUN-CC-PVTZ-JKFIT
    Number of shells: 441
    Number of basis function: 1395
    Number of Cartesian functions: 1674
    Spherical Harmonics?: true
    Max angular momentum: 4

  Minimum eigenvalue in the overlap matrix is 2.8795208616E-05.
  Using Symmetric Orthogonalization.

  SCF Guess: Superposition of Atomic Densities via on-the-fly atomic UHF.

  ==> Iterations <==

                           Total Energy        Delta E     RMS |[F,P]|

   @DF-RHF iter SAD:  -156.79308505587309   -1.56793e+02   0.00000e+00 
   @DF-RHF iter   1:  -157.14984203003104   -3.56757e-01   9.55612e-04 DIIS
   @DF-RHF iter   2:  -157.31617004085322   -1.66328e-01   4.44301e-04 DIIS
   @DF-RHF iter   3:  -157.35341076862588   -3.72407e-02   7.83266e-05 DIIS
   @DF-RHF iter   4:  -157.35580491846358   -2.39415e-03   1.83019e-05 DIIS
   @DF-RHF iter   5:  -157.35589675910845   -9.18406e-05   4.72681e-06 DIIS
   @DF-RHF iter   6:  -157.35590442068354   -7.66158e-06   5.91665e-07 DIIS
   @DF-RHF iter   7:  -157.35590460039941   -1.79716e-07   1.04389e-07 DIIS
   @DF-RHF iter   8:  -157.35590460540894   -5.00953e-09   2.33605e-08 DIIS
   @DF-RHF iter   9:  -157.35590460568031   -2.71370e-10   5.34825e-09 DIIS
  Energy and wave function converged.


  ==> Post-Iterations <==

    Orbital Energies [Eh]
    ---------------------

    Doubly Occupied:                                                      

       1A    -11.213489     2A    -11.212863     3A    -11.207753  
       4A    -11.207594     5A     -1.071307     6A     -0.980185  
       7A     -0.860197     8A     -0.787537     9A     -0.638706  
      10A     -0.584212    11A     -0.575562    12A     -0.566818  
      13A     -0.514171    14A     -0.494028    15A     -0.469656  
      16A     -0.461276    17A     -0.455879  

    Virtual:                                                              

      18A      0.030504    19A      0.043231    20A      0.049717  
      21A      0.054507    22A      0.061677    23A      0.070581  
      24A      0.071015    25A      0.082098    26A      0.083053  
      27A      0.089180    28A      0.099141    29A      0.105059  
      30A      0.105845    31A      0.113220    32A      0.117934  
      33A      0.119522    34A      0.123494    35A      0.131658  
      36A      0.133750    37A      0.140950    38A      0.142606  
      39A      0.153191    40A      0.156495    41A      0.168628  
      42A      0.172331    43A      0.175670    44A      0.179150  
      45A      0.188555    46A      0.191149    47A      0.199369  
      48A      0.207380    49A      0.213325    50A      0.216013  
      51A      0.226144    52A      0.236956    53A      0.247417  
      54A      0.257724    55A      0.272151    56A      0.275784  
      57A      0.277735    58A      0.285591    59A      0.293063  
      60A      0.300136    61A      0.307290    62A      0.313868  
      63A      0.318655    64A      0.320419    65A      0.325214  
      66A      0.327895    67A      0.332392    68A      0.339053  
      69A      0.344822    70A      0.352503    71A      0.355127  
      72A      0.356548    73A      0.360272    74A      0.362576  
      75A      0.371094    76A      0.378285    77A      0.382676  
      78A      0.390034    79A      0.395284    80A      0.399324  
      81A      0.405195    82A      0.415097    83A      0.418893  
      84A      0.424244    85A      0.427797    86A      0.430330  
      87A      0.434815    88A      0.441315    89A      0.454933  
      90A      0.457013    91A      0.473037    92A      0.477865  
      93A      0.492061    94A      0.497146    95A      0.501718  
      96A      0.510124    97A      0.517167    98A      0.525299  
      99A      0.529105   100A      0.531723   101A      0.538737  
     102A      0.542131   103A      0.548961   104A      0.553221  
     105A      0.570510   106A      0.574884   107A      0.576309  
     108A      0.581737   109A      0.588654   110A      0.604038  
     111A      0.608054   112A      0.609272   113A      0.615875  
     114A      0.629599   115A      0.630414   116A      0.637098  
     117A      0.640854   118A      0.644873   119A      0.650562  
     120A      0.669486   121A      0.670352   122A      0.675627  
     123A      0.689685   124A      0.706089   125A      0.709665  
     126A      0.718735   127A      0.731410   128A      0.735515  
     129A      0.740105   130A      0.764061   131A      0.767417  
     132A      0.768795   133A      0.781798   134A      0.794353  
     135A      0.800868   136A      0.802987   137A      0.815568  
     138A      0.821923   139A      0.829633   140A      0.842509  
     141A      0.851426   142A      0.859188   143A      0.861628  
     144A      0.871047   145A      0.882350   146A      0.886929  
     147A      0.890230   148A      0.894280   149A      0.896616  
     150A      0.927545   151A      0.931843   152A      0.938169  
     153A      0.958366   154A      0.958560   155A      0.983688  
     156A      1.015715   157A      1.017829   158A      1.022128  
     159A      1.027923   160A      1.034212   161A      1.052036  
     162A      1.077854   163A      1.091014   164A      1.093635  
     165A      1.100442   166A      1.108802   167A      1.118754  
     168A      1.127144   169A      1.137809   170A      1.146035  
     171A      1.152281   172A      1.167132   173A      1.182831  
     174A      1.194021   175A      1.208677   176A      1.210400  
     177A      1.217933   178A      1.232211   179A      1.234947  
     180A      1.246024   181A      1.253528   182A      1.267162  
     183A      1.272057   184A      1.278831   185A      1.283217  
     186A      1.292879   187A      1.313708   188A      1.330860  
     189A      1.334136   190A      1.339874   191A      1.349082  
     192A      1.352435   193A      1.370703   194A      1.373061  
     195A      1.374583   196A      1.385137   197A      1.396028  
     198A      1.410660   199A      1.412075   200A      1.420433  
     201A      1.426193   202A      1.432526   203A      1.440422  
     204A      1.443791   205A      1.448267   206A      1.460938  
     207A      1.473201   208A      1.480033   209A      1.492941  
     210A      1.502267   211A      1.504932   212A      1.514619  
     213A      1.529277   214A      1.533402   215A      1.536630  
     216A      1.549770   217A      1.562520   218A      1.570778  
     219A      1.576535   220A      1.587348   221A      1.593825  
     222A      1.601277   223A      1.607010   224A      1.609963  
     225A      1.616014   226A      1.627413   227A      1.630582  
     228A      1.635937   229A      1.640543   230A      1.650869  
     231A      1.668132   232A      1.668618   233A      1.681864  
     234A      1.694629   235A      1.698605   236A      1.722720  
     237A      1.726783   238A      1.735330   239A      1.747471  
     240A      1.757715   241A      1.783140   242A      1.791976  
     243A      1.799261   244A      1.805342   245A      1.828238  
     246A      1.839299   247A      1.847896   248A      1.868458  
     249A      1.897989   250A      1.903295   251A      1.919394  
     252A      1.929867   253A      1.943923   254A      1.949364  
     255A      1.954638   256A      1.965938   257A      1.974665  
     258A      1.990530   259A      2.004990   260A      2.016524  
     261A      2.024255   262A      2.040091   263A      2.058004  
     264A      2.077991   265A      2.096216   266A      2.147505  
     267A      2.163387   268A      2.180802   269A      2.199786  
     270A      2.201313   271A      2.219632   272A      2.274575  
     273A      2.321732   274A      2.336990   275A      2.398077  
     276A      2.448986   277A      2.457703   278A      2.469041  
     279A      2.509989   280A      2.599939   281A      2.641461  
     282A      2.654180   283A      2.681502   284A      2.713286  
     285A      2.749121   286A      2.769495   287A      2.804684  
     288A      2.827368   289A      2.841098   290A      2.850908  
     291A      2.869444   292A      2.884301   293A      2.887665  
     294A      2.916015   295A      2.917474   296A      2.934728  
     297A      2.956676   298A      2.977133   299A      2.991909  
     300A      3.028396   301A      3.036868   302A      3.043303  
     303A      3.086542   304A      3.098392   305A      3.137086  
     306A      3.145472   307A      3.154843   308A      3.162109  
     309A      3.176428   310A      3.196814   311A      3.218424  
     312A      3.225444   313A      3.238915   314A      3.260689  
     315A      3.285582   316A      3.290836   317A      3.310037  
     318A      3.333281   319A      3.353505   320A      3.364084  
     321A      3.373319   322A      3.412534   323A      3.417929  
     324A      3.420855   325A      3.427105   326A      3.450854  
     327A      3.473611   328A      3.478714   329A      3.492033  
     330A      3.503630   331A      3.510940   332A      3.515904  
     333A      3.519023   334A      3.543857   335A      3.550080  
     336A      3.558790   337A      3.564321   338A      3.580348  
     339A      3.582332   340A      3.591329   341A      3.594314  
     342A      3.605655   343A      3.610185   344A      3.633255  
     345A      3.638584   346A      3.657740   347A      3.660077  
     348A      3.665707   349A      3.673639   350A      3.678329  
     351A      3.682618   352A      3.707225   353A      3.735158  
     354A      3.750619   355A      3.773108   356A      3.786315  
     357A      3.797245   358A      3.805803   359A      3.824984  
     360A      3.830085   361A      3.836414   362A      3.843177  
     363A      3.850264   364A      3.855744   365A      3.867749  
     366A      3.878941   367A      3.880659   368A      3.891023  
     369A      3.911573   370A      3.916927   371A      3.932377  
     372A      3.941356   373A      3.950592   374A      3.955023  
     375A      3.960081   376A      3.964702   377A      3.983705  
     378A      3.993583   379A      3.999347   380A      4.010104  
     381A      4.024881   382A      4.036101   383A      4.053316  
     384A      4.080304   385A      4.081913   386A      4.111834  
     387A      4.122207   388A      4.140801   389A      4.155359  
     390A      4.175980   391A      4.181331   392A      4.192622  
     393A      4.208497   394A      4.213177   395A      4.233711  
     396A      4.248240   397A      4.255212   398A      4.275181  
     399A      4.285795   400A      4.298846   401A      4.301350  
     402A      4.315584   403A      4.331967   404A      4.339360  
     405A      4.348265   406A      4.356493   407A      4.382020  
     408A      4.388715   409A      4.399338   410A      4.413668  
     411A      4.419376   412A      4.431165   413A      4.439141  
     414A      4.461320   415A      4.469491   416A      4.479675  
     417A      4.491213   418A      4.493205   419A      4.508199  
     420A      4.520230   421A      4.527777   422A      4.530631  
     423A      4.534862   424A      4.543603   425A      4.553526  
     426A      4.557028   427A      4.572001   428A      4.576001  
     429A      4.589262   430A      4.592222   431A      4.603830  
     432A      4.610924   433A      4.627432   434A      4.629742  
     435A      4.634738   436A      4.646097   437A      4.659472  
     438A      4.668319   439A      4.674376   440A      4.684728  
     441A      4.697795   442A      4.704847   443A      4.709816  
     444A      4.720750   445A      4.741861   446A      4.746486  
     447A      4.758538   448A      4.767954   449A      4.779042  
     450A      4.782240   451A      4.795559   452A      4.816863  
     453A      4.821218   454A      4.846231   455A      4.848264  
     456A      4.859424   457A      4.864901   458A      4.865482  
     459A      4.884830   460A      4.889892   461A      4.904661  
     462A      4.909679   463A      4.918190   464A      4.930560  
     465A      4.931943   466A      4.953920   467A      4.961123  
     468A      4.973300   469A      4.983038   470A      4.994293  
     471A      4.994688   472A      5.016732   473A      5.034064  
     474A      5.042872   475A      5.050464   476A      5.066104  
     477A      5.081869   478A      5.097805   479A      5.111013  
     480A      5.120046   481A      5.132466   482A      5.136871  
     483A      5.151424   484A      5.160874   485A      5.189974  
     486A      5.220464   487A      5.234981   488A      5.242543  
     489A      5.262156   490A      5.275818   491A      5.283802  
     492A      5.302981   493A      5.320125   494A      5.331220  
     495A      5.335458   496A      5.354673   497A      5.363637  
     498A      5.373321   499A      5.381589   500A      5.422120  
     501A      5.439438   502A      5.448497   503A      5.456864  
     504A      5.469720   505A      5.473832   506A      5.527717  
     507A      5.548615   508A      5.563741   509A      5.589768  
     510A      5.617773   511A      5.632747   512A      5.655871  
     513A      5.661170   514A      5.674193   515A      5.677491  
     516A      5.727679   517A      5.757730   518A      5.762849  
     519A      5.789146   520A      5.802957   521A      5.809723  
     522A      5.814922   523A      5.824228   524A      5.864915  
     525A      5.878993   526A      5.895990   527A      5.914205  
     528A      5.920379   529A      5.958996   530A      5.972775  
     531A      5.992780   532A      6.003228   533A      6.025057  
     534A      6.041688   535A      6.060313   536A      6.090652  
     537A      6.147854   538A      6.170942   539A      6.202628  
     540A      6.241423   541A      6.260704   542A      6.293073  
     543A      6.356218   544A      6.398282   545A      6.432768  
     546A      6.469610   547A      6.496987   548A      6.506706  
     549A      6.512573   550A      6.530812   551A      6.541052  
     552A      6.563939   553A      6.572897   554A      6.606996  
     555A      6.643406   556A      6.658620   557A      6.660857  
     558A      6.687962   559A      6.794102   560A      6.909974  
     561A      6.978566   562A      7.019740   563A      7.030453  
     564A      7.310934   565A      7.346142   566A      7.544239  
     567A      7.566157   568A      7.647352   569A      7.666574  
     570A      7.700538   571A      7.716617   572A      7.801017  
     573A      7.839512   574A      7.882950   575A      7.928363  
     576A      8.122575   577A      8.236415   578A      8.284464  
     579A      8.396419   580A      8.525674   581A      8.675351  
     582A      9.514671   583A      9.538867   584A      9.675568  
     585A      9.754416   586A      9.862737   587A      9.880946  
     588A      9.927099   589A      9.945646   590A     10.091946  
     591A     11.045219   592A     11.710216   593A     11.995304  
     594A     13.741205   595A     13.769468   596A     14.281354  
     597A     14.597947   598A     14.761995   599A     44.060168  
     600A     44.500923   601A     45.623540   602A     45.809897  
     603A     61.052503  

    Final Occupation by Irrep:
              A 
    DOCC [    17 ]

  @DF-RHF Final Energy:  -157.35590460568031

   => Energetics <=

    Nuclear Repulsion Energy =            131.0735174420956923
    One-Electron Energy =                -470.2563774803070373
    Two-Electron Energy =                 181.8269554325310366
    Total Energy =                       -157.3559046056803084

Computation Completed


Properties will be evaluated at   0.000000,   0.000000,   0.000000 [a0]

Properties computed using the SCF density matrix

  Nuclear Dipole Moment: [e a0]
     X:   124.4660      Y:    50.1796      Z:     2.3604

  Electronic Dipole Moment: [e a0]
     X:  -124.4648      Y:   -50.1786      Z:    -2.3604

  Dipole Moment: [e a0]
     X:     0.0012      Y:     0.0011      Z:     0.0000     Total:     0.0016

  Dipole Moment: [D]
     X:     0.0031      Y:     0.0027      Z:     0.0001     Total:     0.0041


*** tstop() called on r282 at Fri Sep 10 12:41:52 2021
Module time:
	user time   =      67.69 seconds =       1.13 minutes
	system time =       1.02 seconds =       0.02 minutes
	total time  =         68 seconds =       1.13 minutes
Total time:
	user time   =     257.33 seconds =       4.29 minutes
	system time =       4.56 seconds =       0.08 minutes
	total time  =        262 seconds =       4.37 minutes
  Constructing Basis Sets for SAPT...

   => Loading Basis Set <=

    Name: (JUN-CC-PVTZ AUX)
    Role: RIFIT
    Keyword: DF_BASIS_SAPT
    atoms 1, 5, 7-9, 11-13, 15-17, 19-20, 22-23, 25-27 entry H          line    30 file /home/r08543048/miniconda3/share/psi4/basis/jun-cc-pvtz-ri.gbs 
    atoms 2-3, 6, 10, 14, 18, 21, 24                   entry C          line   132 file /home/r08543048/miniconda3/share/psi4/basis/jun-cc-pvtz-ri.gbs 
    atoms 4                                            entry O          line   244 file /home/r08543048/miniconda3/share/psi4/basis/jun-cc-pvtz-ri.gbs 


  //>>>>>>>>>>>>>>>>>>>>>>>>>>>>>>>>>>>//
  //               SAPT0               //
  //<<<<<<<<<<<<<<<<<<<<<<<<<<<<<<<<<<<//


*** tstart() called on r282
*** at Fri Sep 10 12:41:53 2021

        SAPT0  
    Ed Hohenstein
     6 June 2009

      Orbital Information
  --------------------------
    NSO        =       603
    NMO        =       603
    NRI        =      1413
    NOCC A     =        20
    NOCC B     =        17
    FOCC A     =         0
    FOCC B     =         0
    NVIR A     =       583
    NVIR B     =       586

    Elst10,r            =    -0.002956699297 [Eh]
    Exch10              =     0.008262325139 [Eh]
    Exch10 (S^2)        =     0.008248561205 [Eh]

    Iter     Energy [mEh]          dE [mEh]         Residual      Time [s]
       1      -0.50363390       0.503633897       2.962311850             2
       2      -0.61310792       0.109474028       0.659305528             4
       3      -0.61409475       0.000986827       0.219779324             7
       4      -0.61273604      -0.001358713       0.078249714             9
       5      -0.61242604      -0.000309998       0.019399970            10
       6      -0.61255979       0.000133747       0.007510820            12
       7      -0.61257233       0.000012538       0.004080660            14
       8      -0.61255053      -0.000021795       0.001582610            16
       9      -0.61255272       0.000002189       0.000592386            17
      10      -0.61255480       0.000002081       0.000218486            19
      11      -0.61255416      -0.000000639       0.000076463            21
      12      -0.61255406      -0.000000107       0.000022472            23
      13      -0.61255413       0.000000075       0.000005226            25
      14      -0.61255413       0.000000000       0.000001591            26
      15      -0.61255413      -0.000000005       0.000000322            28

    CHF Iterations converged


    Iter     Energy [mEh]          dE [mEh]         Residual      Time [s]
       1      -1.32897646       1.328976461       5.524441596             2
       2      -1.58690950       0.257933036       1.829577714             4
       3      -1.61505745       0.028147950       0.434167726             5
       4      -1.60944770      -0.005609746       0.137270579             7
       5      -1.60790688      -0.001540820       0.023458306             9
       6      -1.60821980       0.000312922       0.006601492            11
       7      -1.60825230       0.000032502       0.001483196            12
       8      -1.60823806      -0.000014248       0.000323541            14
       9      -1.60823821       0.000000148       0.000073041            16
      10      -1.60823867       0.000000465       0.000017780            18
      11      -1.60823865      -0.000000021       0.000004546            19
      12      -1.60823863      -0.000000021       0.000001250            21
      13      -1.60823863      -0.000000001       0.000000320            23

    CHF Iterations converged

    Ind20,r (A<-B)      =    -0.000612554127 [Eh]
    Ind20,r (B<-A)      =    -0.001608238628 [Eh]
    Ind20,r             =    -0.002220792755 [Eh]
    Exch-Ind20,r (A<-B) =     0.000528852762 [Eh]
    Exch-Ind20,r (B<-A) =     0.001006071000 [Eh]
    Exch-Ind20,r        =     0.001534923762 [Eh]
    Disp20              =    -0.010608456709 [Eh]
    Disp20 (SS)         =    -0.005304228355 [Eh]
    Disp20 (OS)         =    -0.005304228355 [Eh]
    Exch-Disp20         =     0.000924787830 [Eh]
    Exch-Disp20 (SS)    =     0.000599635495 [Eh]
    Exch-Disp20 (OS)    =     0.000325152335 [Eh]

    SAPT Results 
  --------------------------------------------------------------------------------------------------------
    Electrostatics                 -2.95669930 [mEh]      -1.85535682 [kcal/mol]      -7.76281294 [kJ/mol]
      Elst10,r                     -2.95669930 [mEh]      -1.85535682 [kcal/mol]      -7.76281294 [kJ/mol]

    Exchange                        8.26232514 [mEh]       5.18468730 [kcal/mol]      21.69273166 [kJ/mol]
      Exch10                        8.26232514 [mEh]       5.18468730 [kcal/mol]      21.69273166 [kJ/mol]
      Exch10(S^2)                   8.24856120 [mEh]       5.17605030 [kcal/mol]      21.65659446 [kJ/mol]

    Induction                      -1.27820415 [mEh]      -0.80208521 [kcal/mol]      -3.35592454 [kJ/mol]
      Ind20,r                      -2.22079275 [mEh]      -1.39356849 [kcal/mol]      -5.83069057 [kJ/mol]
      Exch-Ind20,r                  1.53492376 [mEh]       0.96317920 [kcal/mol]       4.02994178 [kJ/mol]
      delta HF,r (2)               -0.59233516 [mEh]      -0.37169592 [kcal/mol]      -1.55517575 [kJ/mol]

    Dispersion                     -9.68366888 [mEh]      -6.07659396 [kcal/mol]     -25.42446914 [kJ/mol]
      Disp20                      -10.60845671 [mEh]      -6.65690709 [kcal/mol]     -27.85249925 [kJ/mol]
      Exch-Disp20                   0.92478783 [mEh]       0.58031312 [kcal/mol]       2.42803011 [kJ/mol]
      Disp20 (SS)                  -5.30422835 [mEh]      -3.32845354 [kcal/mol]     -13.92624963 [kJ/mol]
      Disp20 (OS)                  -5.30422835 [mEh]      -3.32845354 [kcal/mol]     -13.92624963 [kJ/mol]
      Exch-Disp20 (SS)              0.59963549 [mEh]       0.37627695 [kcal/mol]       1.57434277 [kJ/mol]
      Exch-Disp20 (OS)              0.32515234 [mEh]       0.20403617 [kcal/mol]       0.85368734 [kJ/mol]

  Total HF                          4.02742169 [mEh]       2.52724527 [kcal/mol]      10.57399419 [kJ/mol]
  Total SAPT0                      -5.65624719 [mEh]      -3.54934870 [kcal/mol]     -14.85047495 [kJ/mol]

  Special recipe for scaled SAPT0 (see Manual):
    Electrostatics sSAPT0          -2.95669930 [mEh]      -1.85535682 [kcal/mol]      -7.76281294 [kJ/mol]
    Exchange sSAPT0                 8.26232514 [mEh]       5.18468730 [kcal/mol]      21.69273166 [kJ/mol]
    Induction sSAPT0               -1.27050759 [mEh]      -0.79725555 [kcal/mol]      -3.33571721 [kJ/mol]
    Dispersion sSAPT0              -9.67903172 [mEh]      -6.07368410 [kcal/mol]     -25.41229427 [kJ/mol]
  Total sSAPT0                     -5.64391346 [mEh]      -3.54160917 [kcal/mol]     -14.81809276 [kJ/mol]
  --------------------------------------------------------------------------------------------------------

*** tstop() called on r282 at Fri Sep 10 12:45:48 2021
Module time:
	user time   =     204.32 seconds =       3.41 minutes
	system time =      30.18 seconds =       0.50 minutes
	total time  =        235 seconds =       3.92 minutes
Total time:
	user time   =     461.83 seconds =       7.70 minutes
	system time =      34.74 seconds =       0.58 minutes
	total time  =        498 seconds =       8.30 minutes

    Psi4 stopped on: Friday, 10 September 2021 12:45PM
    Psi4 wall time for execution: 0:08:18.27

*** Psi4 exiting successfully. Buy a developer a beer!
