
    -----------------------------------------------------------------------
          Psi4: An Open-Source Ab Initio Electronic Structure Package
                               Psi4 1.3.2 release

                         Git: Rev {HEAD} ecbda83 


    R. M. Parrish, L. A. Burns, D. G. A. Smith, A. C. Simmonett,
    A. E. DePrince III, E. G. Hohenstein, U. Bozkaya, A. Yu. Sokolov,
    R. Di Remigio, R. M. Richard, J. F. Gonthier, A. M. James,
    H. R. McAlexander, A. Kumar, M. Saitow, X. Wang, B. P. Pritchard,
    P. Verma, H. F. Schaefer III, K. Patkowski, R. A. King, E. F. Valeev,
    F. A. Evangelista, J. M. Turney, T. D. Crawford, and C. D. Sherrill,
    J. Chem. Theory Comput. 13(7) pp 3185--3197 (2017).
    (doi: 10.1021/acs.jctc.7b00174)


                         Additional Contributions by
    P. Kraus, H. Kruse, M. H. Lechner, M. C. Schieber, R. A. Shaw,
    A. Alenaizan, R. Galvelis, Z. L. Glick, S. Lehtola, and J. P. Misiewicz

    -----------------------------------------------------------------------


    Psi4 started on: Friday, 10 September 2021 12:20PM

    Process ID: 56607
    Host:       r282
    PSIDATADIR: /home/r08543048/miniconda3/share/psi4
    Memory:     500.0 MiB
    Threads:    1
    
  ==> Input File <==

--------------------------------------------------------------------------
# Any line starting with the # character is a comment line
#! Sample  computation

memory 22 gb

molecule Dimer {
0 1
 H -1.301224    1.759812    1.145505
 C -1.690052   -0.356128    0.621970
 C -1.187898    1.027179    0.324879
 O -0.687057    1.364570   -0.730709
 H -2.749493   -0.258819    0.881271
 C -1.475411   -1.337843   -0.515638
 H -1.979628   -0.997136   -1.417830
 H -0.416140   -1.430312   -0.749251
 H -1.860185   -2.321294   -0.252428
 H -1.197833   -0.682625    1.543411





    
    
    
 --
0 1
 C  2.113467   -0.184589    0.858839
 C  2.455390   -0.147475   -0.625976
 H  2.966504   -0.505315    1.456127
 H  1.296263   -0.878473    1.057915
 H  1.810474    0.799758    1.215273
 H  2.739190   -1.135211   -0.988263
 H  3.289218    0.526838   -0.817287
 H  1.606335    0.199351   -1.213214
  
  
  
  
  
  





units angstrom

no_reorient
symmetry c1
}

set globals{
  basis jun-cc-pvtz
}

energy('sapt0')


--------------------------------------------------------------------------

  Memory set to  20.489 GiB by Python driver.

  //>>>>>>>>>>>>>>>>>>>>>>>>>>>>>>>>>>>//
  //              Dimer HF             //
  //<<<<<<<<<<<<<<<<<<<<<<<<<<<<<<<<<<<//


*** tstart() called on r282
*** at Fri Sep 10 12:20:05 2021

   => Loading Basis Set <=

    Name: JUN-CC-PVTZ
    Role: ORBITAL
    Keyword: BASIS
    atoms 1, 5, 7-10, 13-18 entry H          line    36 file /home/r08543048/miniconda3/share/psi4/basis/jun-cc-pvtz.gbs 
    atoms 2-3, 6, 11-12     entry C          line   217 file /home/r08543048/miniconda3/share/psi4/basis/jun-cc-pvtz.gbs 
    atoms 4                 entry O          line   305 file /home/r08543048/miniconda3/share/psi4/basis/jun-cc-pvtz.gbs 


         ---------------------------------------------------------
                                   SCF
               by Justin Turney, Rob Parrish, Andy Simmonett
                          and Daniel G. A. Smith
                              RHF Reference
                        1 Threads,  20980 MiB Core
         ---------------------------------------------------------

  ==> Geometry <==

    Molecular point group: c1
    Full point group: C1

    Geometry (in Angstrom), charge = 0, multiplicity = 1:

       Center              X                  Y                   Z               Mass       
    ------------   -----------------  -----------------  -----------------  -----------------
         H           -1.253918417797     1.704436562438     1.166426463068     1.007825032230
         C           -1.642746417797    -0.411503437562     0.642891463068    12.000000000000
         C           -1.140592417797     0.971803562438     0.345800463068    12.000000000000
         O           -0.639751417797     1.309194562438    -0.709787536932    15.994914619570
         H           -2.702187417797    -0.314194437562     0.902192463068     1.007825032230
         C           -1.428105417797    -1.393218437562    -0.494716536932    12.000000000000
         H           -1.932322417797    -1.052511437562    -1.396908536932     1.007825032230
         H           -0.368834417797    -1.485687437562    -0.728329536932     1.007825032230
         H           -1.812879417797    -2.376669437562    -0.231506536932     1.007825032230
         H           -1.150527417797    -0.738000437562     1.564332463068     1.007825032230
         C            2.160772582203    -0.239964437562     0.879760463068    12.000000000000
         C            2.502695582203    -0.202850437562    -0.605054536932    12.000000000000
         H            3.013809582203    -0.560690437562     1.477048463068     1.007825032230
         H            1.343568582203    -0.933848437562     1.078836463068     1.007825032230
         H            1.857779582203     0.744382562438     1.236194463068     1.007825032230
         H            2.786495582203    -1.190586437562    -0.967341536932     1.007825032230
         H            3.336523582203     0.471462562438    -0.796365536932     1.007825032230
         H            1.653640582203     0.143975562438    -1.192292536932     1.007825032230

  Running in c1 symmetry.

  Rotational constants: A =      0.13230  B =      0.05440  C =      0.04878 [cm^-1]
  Rotational constants: A =   3966.17006  B =   1630.76784  C =   1462.40952 [MHz]
  Nuclear repulsion =  239.404632747940326

  Charge       = 0
  Multiplicity = 1
  Electrons    = 50
  Nalpha       = 25
  Nbeta        = 25

  ==> Algorithm <==

  SCF Algorithm Type is DF.
  DIIS enabled.
  MOM disabled.
  Fractional occupation disabled.
  Guess Type is SAD.
  Energy threshold   = 1.00e-08
  Density threshold  = 1.00e-08
  Integral threshold = 0.00e+00

  ==> Primary Basis <==

  Basis Set: JUN-CC-PVTZ
    Blend: JUN-CC-PVTZ
    Number of shells: 150
    Number of basis function: 402
    Number of Cartesian functions: 450
    Spherical Harmonics?: true
    Max angular momentum: 3

   => Loading Basis Set <=

    Name: (JUN-CC-PVTZ AUX)
    Role: JKFIT
    Keyword: DF_BASIS_SCF
    atoms 1, 5, 7-10, 13-18 entry H          line    70 file /home/r08543048/miniconda3/share/psi4/basis/jun-cc-pvtz-jkfit.gbs 
    atoms 2-3, 6, 11-12     entry C          line   152 file /home/r08543048/miniconda3/share/psi4/basis/jun-cc-pvtz-jkfit.gbs 
    atoms 4                 entry O          line   272 file /home/r08543048/miniconda3/share/psi4/basis/jun-cc-pvtz-jkfit.gbs 

  ==> Pre-Iterations <==

   -------------------------------------------------------
    Irrep   Nso     Nmo     Nalpha   Nbeta   Ndocc  Nsocc
   -------------------------------------------------------
     A        402     402       0       0       0       0
   -------------------------------------------------------
    Total     402     402      25      25      25       0
   -------------------------------------------------------

  ==> Integral Setup <==

  ==> DiskDFJK: Density-Fitted J/K Matrices <==

    J tasked:                  Yes
    K tasked:                  Yes
    wK tasked:                  No
    OpenMP threads:              1
    Integrals threads:           1
    Memory [MiB]:            15735
    Algorithm:                Core
    Integral Cache:           SAVE
    Schwarz Cutoff:          1E-12
    Fitting Condition:       1E-10

   => Auxiliary Basis Set <=

  Basis Set: (JUN-CC-PVTZ AUX)
    Blend: JUN-CC-PVTZ-JKFIT
    Number of shells: 294
    Number of basis function: 930
    Number of Cartesian functions: 1116
    Spherical Harmonics?: true
    Max angular momentum: 4

  Minimum eigenvalue in the overlap matrix is 6.4965576911E-05.
  Using Symmetric Orthogonalization.

  SCF Guess: Superposition of Atomic Densities via on-the-fly atomic UHF.

  ==> Iterations <==

                           Total Energy        Delta E     RMS |[F,P]|

   @DF-RHF iter SAD:  -269.95217265195595   -2.69952e+02   0.00000e+00 
   @DF-RHF iter   1:  -271.00720130280484   -1.05503e+00   1.74234e-03 DIIS
   @DF-RHF iter   2:  -271.21245017405835   -2.05249e-01   1.00240e-03 DIIS
   @DF-RHF iter   3:  -271.27717388774909   -6.47237e-02   2.08755e-04 DIIS
   @DF-RHF iter   4:  -271.28141661094935   -4.24272e-03   9.49199e-05 DIIS
   @DF-RHF iter   5:  -271.28230075206488   -8.84141e-04   1.41034e-05 DIIS
   @DF-RHF iter   6:  -271.28234606131957   -4.53093e-05   4.89610e-06 DIIS
   @DF-RHF iter   7:  -271.28235132394258   -5.26262e-06   2.08976e-06 DIIS
   @DF-RHF iter   8:  -271.28235227416980   -9.50227e-07   6.70613e-07 DIIS
   @DF-RHF iter   9:  -271.28235238828222   -1.14112e-07   1.58887e-07 DIIS
   @DF-RHF iter  10:  -271.28235239407678   -5.79456e-09   3.85818e-08 DIIS
   @DF-RHF iter  11:  -271.28235239431615   -2.39368e-10   1.13035e-08 DIIS
   @DF-RHF iter  12:  -271.28235239434667   -3.05249e-11   3.62303e-09 DIIS
  Energy and wave function converged.


  ==> Post-Iterations <==

    Orbital Energies [Eh]
    ---------------------

    Doubly Occupied:                                                      

       1A    -20.558073     2A    -11.333780     3A    -11.245272  
       4A    -11.221039     5A    -11.209101     6A    -11.201136  
       7A     -1.389715     8A     -1.064673     9A     -1.014143  
      10A     -0.913264    11A     -0.837184    12A     -0.775056  
      13A     -0.682046    14A     -0.639387    15A     -0.629275  
      16A     -0.593949    17A     -0.589859    18A     -0.542281  
      19A     -0.527869    20A     -0.521288    21A     -0.504687  
      22A     -0.493693    23A     -0.482631    24A     -0.478857  
      25A     -0.423757  

    Virtual:                                                              

      26A      0.046137    27A      0.052805    28A      0.060274  
      29A      0.062848    30A      0.072038    31A      0.085406  
      32A      0.087978    33A      0.095565    34A      0.097361  
      35A      0.113230    36A      0.117729    37A      0.120788  
      38A      0.124987    39A      0.132347    40A      0.135733  
      41A      0.149708    42A      0.152073    43A      0.181761  
      44A      0.186029    45A      0.197429    46A      0.208453  
      47A      0.226187    48A      0.248641    49A      0.252791  
      50A      0.257091    51A      0.266623    52A      0.271513  
      53A      0.283164    54A      0.285925    55A      0.294603  
      56A      0.300587    57A      0.304649    58A      0.320754  
      59A      0.324135    60A      0.326318    61A      0.333516  
      62A      0.342333    63A      0.344783    64A      0.350078  
      65A      0.354375    66A      0.360626    67A      0.369962  
      68A      0.376563    69A      0.383195    70A      0.395951  
      71A      0.396817    72A      0.401306    73A      0.406184  
      74A      0.413899    75A      0.430759    76A      0.442999  
      77A      0.457780    78A      0.470378    79A      0.477234  
      80A      0.497259    81A      0.507366    82A      0.509321  
      83A      0.518325    84A      0.527356    85A      0.536316  
      86A      0.541456    87A      0.559687    88A      0.567737  
      89A      0.575850    90A      0.601347    91A      0.645684  
      92A      0.658212    93A      0.662899    94A      0.667103  
      95A      0.675841    96A      0.694784    97A      0.707624  
      98A      0.718564    99A      0.729547   100A      0.739273  
     101A      0.749417   102A      0.752410   103A      0.761687  
     104A      0.767563   105A      0.773643   106A      0.796368  
     107A      0.804783   108A      0.811512   109A      0.814068  
     110A      0.824236   111A      0.837817   112A      0.842760  
     113A      0.856032   114A      0.859481   115A      0.866388  
     116A      0.882981   117A      0.887970   118A      0.897606  
     119A      0.916586   120A      0.932120   121A      0.957429  
     122A      0.965610   123A      0.968360   124A      0.975060  
     125A      0.996660   126A      1.010070   127A      1.013515  
     128A      1.033711   129A      1.057857   130A      1.076908  
     131A      1.088618   132A      1.104737   133A      1.110100  
     134A      1.133970   135A      1.145015   136A      1.167645  
     137A      1.194093   138A      1.231667   139A      1.258472  
     140A      1.263793   141A      1.289217   142A      1.291126  
     143A      1.306613   144A      1.317200   145A      1.329770  
     146A      1.340318   147A      1.346329   148A      1.356395  
     149A      1.379717   150A      1.386653   151A      1.392126  
     152A      1.410260   153A      1.435771   154A      1.437433  
     155A      1.443107   156A      1.455426   157A      1.467811  
     158A      1.479707   159A      1.488854   160A      1.501106  
     161A      1.516604   162A      1.535436   163A      1.552985  
     164A      1.559137   165A      1.577111   166A      1.589743  
     167A      1.608011   168A      1.614706   169A      1.624694  
     170A      1.632762   171A      1.657390   172A      1.670776  
     173A      1.682413   174A      1.683895   175A      1.697354  
     176A      1.718116   177A      1.727787   178A      1.752909  
     179A      1.781356   180A      1.783755   181A      1.790826  
     182A      1.812733   183A      1.846579   184A      1.850113  
     185A      1.893147   186A      1.912866   187A      1.922698  
     188A      1.935288   189A      1.955074   190A      1.963240  
     191A      2.019174   192A      2.101215   193A      2.284504  
     194A      2.382204   195A      2.428273   196A      2.453825  
     197A      2.552969   198A      2.652430   199A      2.712717  
     200A      2.730146   201A      2.735008   202A      2.754035  
     203A      2.761470   204A      2.788939   205A      2.806413  
     206A      2.833547   207A      2.844077   208A      2.854249  
     209A      2.881267   210A      2.914508   211A      2.929473  
     212A      2.936847   213A      2.963826   214A      2.975320  
     215A      2.986161   216A      3.013175   217A      3.018056  
     218A      3.045895   219A      3.085779   220A      3.094117  
     221A      3.114092   222A      3.125162   223A      3.131652  
     224A      3.148491   225A      3.164260   226A      3.193854  
     227A      3.202348   228A      3.211497   229A      3.239873  
     230A      3.245769   231A      3.265594   232A      3.291221  
     233A      3.306747   234A      3.317518   235A      3.319455  
     236A      3.336120   237A      3.344795   238A      3.362392  
     239A      3.371846   240A      3.387991   241A      3.414810  
     242A      3.417592   243A      3.433515   244A      3.445642  
     245A      3.454593   246A      3.465793   247A      3.484914  
     248A      3.492573   249A      3.499329   250A      3.516983  
     251A      3.521043   252A      3.526499   253A      3.536368  
     254A      3.556677   255A      3.566204   256A      3.582382  
     257A      3.595285   258A      3.609080   259A      3.617996  
     260A      3.631882   261A      3.646765   262A      3.668920  
     263A      3.697554   264A      3.704828   265A      3.720254  
     266A      3.736202   267A      3.777445   268A      3.797498  
     269A      3.799314   270A      3.835702   271A      3.848726  
     272A      3.858388   273A      3.861360   274A      3.864248  
     275A      3.885670   276A      3.900686   277A      3.910503  
     278A      3.916593   279A      3.920976   280A      3.944229  
     281A      3.948184   282A      3.979149   283A      4.007974  
     284A      4.017708   285A      4.099986   286A      4.121904  
     287A      4.131462   288A      4.171147   289A      4.190565  
     290A      4.195240   291A      4.200061   292A      4.215751  
     293A      4.233783   294A      4.242702   295A      4.247747  
     296A      4.266041   297A      4.285437   298A      4.299085  
     299A      4.309399   300A      4.319050   301A      4.330311  
     302A      4.341664   303A      4.367874   304A      4.399718  
     305A      4.418664   306A      4.437367   307A      4.445239  
     308A      4.452631   309A      4.476929   310A      4.482461  
     311A      4.499941   312A      4.500391   313A      4.504951  
     314A      4.513707   315A      4.530345   316A      4.551953  
     317A      4.569457   318A      4.576546   319A      4.636401  
     320A      4.656008   321A      4.666968   322A      4.676635  
     323A      4.691764   324A      4.708831   325A      4.714498  
     326A      4.734289   327A      4.761033   328A      4.804070  
     329A      4.811820   330A      4.819757   331A      4.858943  
     332A      4.911619   333A      4.932446   334A      4.957283  
     335A      4.972662   336A      5.010288   337A      5.039948  
     338A      5.070904   339A      5.163734   340A      5.186760  
     341A      5.214557   342A      5.225957   343A      5.245058  
     344A      5.274172   345A      5.279240   346A      5.284969  
     347A      5.295594   348A      5.306189   349A      5.315657  
     350A      5.331225   351A      5.338290   352A      5.350276  
     353A      5.367218   354A      5.371564   355A      5.429308  
     356A      5.458099   357A      5.511773   358A      5.625485  
     359A      5.668944   360A      5.687199   361A      5.695875  
     362A      5.713599   363A      5.718307   364A      5.742802  
     365A      5.748901   366A      5.763718   367A      5.770025  
     368A      5.775612   369A      5.785973   370A      5.809831  
     371A      5.819047   372A      5.843165   373A      5.911078  
     374A      5.916145   375A      5.931545   376A      5.935300  
     377A      5.941814   378A      5.967764   379A      6.124527  
     380A      6.172152   381A      6.314217   382A      6.460657  
     383A      6.473371   384A      6.491125   385A      6.496401  
     386A      6.509530   387A      6.537013   388A      6.563699  
     389A      6.797777   390A      6.955742   391A      7.243885  
     392A      7.288931   393A      7.305423   394A      7.462952  
     395A      7.622427   396A      7.713141   397A     12.482179  
     398A     13.982340   399A     14.142956   400A     14.313631  
     401A     14.695534   402A     14.728406  

    Final Occupation by Irrep:
              A 
    DOCC [    25 ]

  @DF-RHF Final Energy:  -271.28235239434667

   => Energetics <=

    Nuclear Repulsion Energy =            239.4046327479403260
    One-Electron Energy =                -841.6299420821817421
    Two-Electron Energy =                 330.9429569398947137
    Total Energy =                       -271.2823523943466739

Computation Completed


Properties will be evaluated at   0.000000,   0.000000,   0.000000 [a0]

Properties computed using the SCF density matrix

  Nuclear Dipole Moment: [e a0]
     X:     4.4697      Y:    -5.2322      Z:     1.9768

  Electronic Dipole Moment: [e a0]
     X:    -5.0186      Y:     4.7342      Z:    -1.0588

  Dipole Moment: [e a0]
     X:    -0.5488      Y:    -0.4980      Z:     0.9180     Total:     1.1798

  Dipole Moment: [D]
     X:    -1.3950      Y:    -1.2659      Z:     2.3333     Total:     2.9988


*** tstop() called on r282 at Fri Sep 10 12:20:34 2021
Module time:
	user time   =      28.67 seconds =       0.48 minutes
	system time =       0.78 seconds =       0.01 minutes
	total time  =         29 seconds =       0.48 minutes
Total time:
	user time   =      28.67 seconds =       0.48 minutes
	system time =       0.78 seconds =       0.01 minutes
	total time  =         29 seconds =       0.48 minutes

  //>>>>>>>>>>>>>>>>>>>>>>>>>>>>>>>>>>>//
  //            Monomer A HF           //
  //<<<<<<<<<<<<<<<<<<<<<<<<<<<<<<<<<<<//


*** tstart() called on r282
*** at Fri Sep 10 12:20:34 2021

   => Loading Basis Set <=

    Name: JUN-CC-PVTZ
    Role: ORBITAL
    Keyword: BASIS
    atoms 1, 5, 7-10, 13-18 entry H          line    36 file /home/r08543048/miniconda3/share/psi4/basis/jun-cc-pvtz.gbs 
    atoms 2-3, 6, 11-12     entry C          line   217 file /home/r08543048/miniconda3/share/psi4/basis/jun-cc-pvtz.gbs 
    atoms 4                 entry O          line   305 file /home/r08543048/miniconda3/share/psi4/basis/jun-cc-pvtz.gbs 


         ---------------------------------------------------------
                                   SCF
               by Justin Turney, Rob Parrish, Andy Simmonett
                          and Daniel G. A. Smith
                              RHF Reference
                        1 Threads,  20980 MiB Core
         ---------------------------------------------------------

  ==> Geometry <==

    Molecular point group: c1
    Full point group: C1

    Geometry (in Angstrom), charge = 0, multiplicity = 1:

       Center              X                  Y                   Z               Mass       
    ------------   -----------------  -----------------  -----------------  -----------------
         H           -1.253918417797     1.704436562438     1.166426463068     1.007825032230
         C           -1.642746417797    -0.411503437562     0.642891463068    12.000000000000
         C           -1.140592417797     0.971803562438     0.345800463068    12.000000000000
         O           -0.639751417797     1.309194562438    -0.709787536932    15.994914619570
         H           -2.702187417797    -0.314194437562     0.902192463068     1.007825032230
         C           -1.428105417797    -1.393218437562    -0.494716536932    12.000000000000
         H           -1.932322417797    -1.052511437562    -1.396908536932     1.007825032230
         H           -0.368834417797    -1.485687437562    -0.728329536932     1.007825032230
         H           -1.812879417797    -2.376669437562    -0.231506536932     1.007825032230
         H           -1.150527417797    -0.738000437562     1.564332463068     1.007825032230
      Gh(C)           2.160772582203    -0.239964437562     0.879760463068    12.000000000000
      Gh(C)           2.502695582203    -0.202850437562    -0.605054536932    12.000000000000
      Gh(H)           3.013809582203    -0.560690437562     1.477048463068     1.007825032230
      Gh(H)           1.343568582203    -0.933848437562     1.078836463068     1.007825032230
      Gh(H)           1.857779582203     0.744382562438     1.236194463068     1.007825032230
      Gh(H)           2.786495582203    -1.190586437562    -0.967341536932     1.007825032230
      Gh(H)           3.336523582203     0.471462562438    -0.796365536932     1.007825032230
      Gh(H)           1.653640582203     0.143975562438    -1.192292536932     1.007825032230

  Running in c1 symmetry.

  Rotational constants: A =      0.13230  B =      0.05440  C =      0.04878 [cm^-1]
  Rotational constants: A =   3966.17006  B =   1630.76784  C =   1462.40952 [MHz]
  Nuclear repulsion =  118.692125591040863

  Charge       = 0
  Multiplicity = 1
  Electrons    = 32
  Nalpha       = 16
  Nbeta        = 16

  ==> Algorithm <==

  SCF Algorithm Type is DF.
  DIIS enabled.
  MOM disabled.
  Fractional occupation disabled.
  Guess Type is SAD.
  Energy threshold   = 1.00e-08
  Density threshold  = 1.00e-08
  Integral threshold = 0.00e+00

  ==> Primary Basis <==

  Basis Set: JUN-CC-PVTZ
    Blend: JUN-CC-PVTZ
    Number of shells: 150
    Number of basis function: 402
    Number of Cartesian functions: 450
    Spherical Harmonics?: true
    Max angular momentum: 3

   => Loading Basis Set <=

    Name: (JUN-CC-PVTZ AUX)
    Role: JKFIT
    Keyword: DF_BASIS_SCF
    atoms 1, 5, 7-10, 13-18 entry H          line    70 file /home/r08543048/miniconda3/share/psi4/basis/jun-cc-pvtz-jkfit.gbs 
    atoms 2-3, 6, 11-12     entry C          line   152 file /home/r08543048/miniconda3/share/psi4/basis/jun-cc-pvtz-jkfit.gbs 
    atoms 4                 entry O          line   272 file /home/r08543048/miniconda3/share/psi4/basis/jun-cc-pvtz-jkfit.gbs 

  ==> Pre-Iterations <==

   -------------------------------------------------------
    Irrep   Nso     Nmo     Nalpha   Nbeta   Ndocc  Nsocc
   -------------------------------------------------------
     A        402     402       0       0       0       0
   -------------------------------------------------------
    Total     402     402      16      16      16       0
   -------------------------------------------------------

  ==> Integral Setup <==

  ==> DiskDFJK: Density-Fitted J/K Matrices <==

    J tasked:                  Yes
    K tasked:                  Yes
    wK tasked:                  No
    OpenMP threads:              1
    Integrals threads:           1
    Memory [MiB]:            15735
    Algorithm:                Core
    Integral Cache:           LOAD
    Schwarz Cutoff:          1E-12
    Fitting Condition:       1E-10

   => Auxiliary Basis Set <=

  Basis Set: (JUN-CC-PVTZ AUX)
    Blend: JUN-CC-PVTZ-JKFIT
    Number of shells: 294
    Number of basis function: 930
    Number of Cartesian functions: 1116
    Spherical Harmonics?: true
    Max angular momentum: 4

  Minimum eigenvalue in the overlap matrix is 6.4965576911E-05.
  Using Symmetric Orthogonalization.

  SCF Guess: Superposition of Atomic Densities via on-the-fly atomic UHF.

  ==> Iterations <==

                           Total Energy        Delta E     RMS |[F,P]|

   @DF-RHF iter SAD:  -191.17792853950266   -1.91178e+02   0.00000e+00 
   @DF-RHF iter   1:  -191.85948424195132   -6.81556e-01   1.38268e-03 DIIS
   @DF-RHF iter   2:  -191.97482534974972   -1.15341e-01   8.85798e-04 DIIS
   @DF-RHF iter   3:  -192.02098760927362   -4.61623e-02   1.63705e-04 DIIS
   @DF-RHF iter   4:  -192.02376507049010   -2.77746e-03   6.97836e-05 DIIS
   @DF-RHF iter   5:  -192.02431211455587   -5.47044e-04   1.26151e-05 DIIS
   @DF-RHF iter   6:  -192.02435014998562   -3.80354e-05   4.79441e-06 DIIS
   @DF-RHF iter   7:  -192.02435533144350   -5.18146e-06   2.06805e-06 DIIS
   @DF-RHF iter   8:  -192.02435620266652   -8.71223e-07   6.49270e-07 DIIS
   @DF-RHF iter   9:  -192.02435630748840   -1.04822e-07   1.31409e-07 DIIS
   @DF-RHF iter  10:  -192.02435631160498   -4.11657e-09   2.74115e-08 DIIS
   @DF-RHF iter  11:  -192.02435631174285   -1.37874e-10   5.71937e-09 DIIS
  Energy and wave function converged.


  ==> Post-Iterations <==

    Orbital Energies [Eh]
    ---------------------

    Doubly Occupied:                                                      

       1A    -20.557985     2A    -11.333015     3A    -11.245437  
       4A    -11.221119     5A     -1.388716     6A     -1.064358  
       7A     -0.912879     8A     -0.774415     9A     -0.681432  
      10A     -0.636001    11A     -0.627696    12A     -0.542038  
      13A     -0.527476    14A     -0.521208    15A     -0.491200  
      16A     -0.423231  

    Virtual:                                                              

      17A      0.038124    18A      0.048198    19A      0.052096  
      20A      0.058937    21A      0.069535    22A      0.081001  
      23A      0.084340    24A      0.094247    25A      0.095208  
      26A      0.106620    27A      0.115574    28A      0.116507  
      29A      0.122297    30A      0.124228    31A      0.133122  
      32A      0.142614    33A      0.152735    34A      0.165579  
      35A      0.166849    36A      0.189500    37A      0.199905  
      38A      0.215141    39A      0.230492    40A      0.240675  
      41A      0.247356    42A      0.261614    43A      0.266423  
      44A      0.276687    45A      0.282190    46A      0.285607  
      47A      0.292827    48A      0.302106    49A      0.314996  
      50A      0.318578    51A      0.329422    52A      0.335815  
      53A      0.336129    54A      0.342641    55A      0.350728  
      56A      0.354049    57A      0.365676    58A      0.379674  
      59A      0.385336    60A      0.394401    61A      0.404237  
      62A      0.408435    63A      0.414198    64A      0.417982  
      65A      0.432521    66A      0.439459    67A      0.448752  
      68A      0.459777    69A      0.472695    70A      0.484085  
      71A      0.498665    72A      0.502551    73A      0.513049  
      74A      0.514417    75A      0.529711    76A      0.542731  
      77A      0.546601    78A      0.554291    79A      0.572739  
      80A      0.574504    81A      0.590840    82A      0.600906  
      83A      0.602908    84A      0.636455    85A      0.651771  
      86A      0.654044    87A      0.657754    88A      0.668277  
      89A      0.676502    90A      0.683929    91A      0.708190  
      92A      0.737404    93A      0.747671    94A      0.751721  
      95A      0.769712    96A      0.782373    97A      0.791315  
      98A      0.800373    99A      0.823664   100A      0.836409  
     101A      0.852728   102A      0.860832   103A      0.872409  
     104A      0.888125   105A      0.897761   106A      0.915822  
     107A      0.950548   108A      0.953029   109A      0.986743  
     110A      0.991423   111A      1.021627   112A      1.039454  
     113A      1.046207   114A      1.067856   115A      1.085864  
     116A      1.086915   117A      1.095783   118A      1.105909  
     119A      1.116994   120A      1.129463   121A      1.145612  
     122A      1.154937   123A      1.177042   124A      1.181724  
     125A      1.194120   126A      1.206276   127A      1.230652  
     128A      1.243685   129A      1.251084   130A      1.260411  
     131A      1.268997   132A      1.282042   133A      1.298911  
     134A      1.321551   135A      1.328582   136A      1.337634  
     137A      1.345758   138A      1.353502   139A      1.370052  
     140A      1.383564   141A      1.393018   142A      1.402684  
     143A      1.412236   144A      1.414968   145A      1.427406  
     146A      1.447345   147A      1.459305   148A      1.475765  
     149A      1.495304   150A      1.508619   151A      1.519692  
     152A      1.534270   153A      1.547108   154A      1.554937  
     155A      1.579316   156A      1.588798   157A      1.597869  
     158A      1.609398   159A      1.613634   160A      1.623029  
     161A      1.635590   162A      1.655546   163A      1.657351  
     164A      1.680014   165A      1.707195   166A      1.712942  
     167A      1.741099   168A      1.764183   169A      1.767734  
     170A      1.783621   171A      1.789189   172A      1.812065  
     173A      1.820086   174A      1.838541   175A      1.856134  
     176A      1.930463   177A      1.949324   178A      1.957076  
     179A      2.003193   180A      2.019658   181A      2.084947  
     182A      2.091910   183A      2.118363   184A      2.234383  
     185A      2.288285   186A      2.301550   187A      2.350212  
     188A      2.394532   189A      2.415005   190A      2.419171  
     191A      2.446010   192A      2.464000   193A      2.526085  
     194A      2.557125   195A      2.563009   196A      2.685466  
     197A      2.743254   198A      2.765247   199A      2.794483  
     200A      2.858806   201A      2.886992   202A      2.924890  
     203A      2.931683   204A      2.953541   205A      2.978207  
     206A      2.979163   207A      3.027892   208A      3.048702  
     209A      3.102637   210A      3.123227   211A      3.145315  
     212A      3.164867   213A      3.226647   214A      3.270151  
     215A      3.300253   216A      3.314262   217A      3.344810  
     218A      3.372277   219A      3.382046   220A      3.394088  
     221A      3.413112   222A      3.430868   223A      3.448404  
     224A      3.482818   225A      3.483762   226A      3.499266  
     227A      3.509059   228A      3.537540   229A      3.544127  
     230A      3.553002   231A      3.564260   232A      3.566925  
     233A      3.575904   234A      3.591920   235A      3.600218  
     236A      3.614418   237A      3.626172   238A      3.642040  
     239A      3.650788   240A      3.669662   241A      3.698687  
     242A      3.704379   243A      3.731971   244A      3.770793  
     245A      3.793278   246A      3.799776   247A      3.809000  
     248A      3.815898   249A      3.835074   250A      3.847620  
     251A      3.857251   252A      3.867870   253A      3.877032  
     254A      3.897218   255A      3.907747   256A      3.939255  
     257A      3.943176   258A      3.965912   259A      3.995595  
     260A      4.008221   261A      4.056595   262A      4.082595  
     263A      4.091452   264A      4.103928   265A      4.114180  
     266A      4.128086   267A      4.147936   268A      4.172329  
     269A      4.192695   270A      4.206656   271A      4.215856  
     272A      4.244362   273A      4.300029   274A      4.309480  
     275A      4.324102   276A      4.327975   277A      4.349347  
     278A      4.354931   279A      4.373739   280A      4.402266  
     281A      4.413006   282A      4.435151   283A      4.441929  
     284A      4.452311   285A      4.454478   286A      4.482804  
     287A      4.491552   288A      4.497651   289A      4.519388  
     290A      4.532994   291A      4.540367   292A      4.542054  
     293A      4.552112   294A      4.566104   295A      4.609173  
     296A      4.620804   297A      4.631374   298A      4.653810  
     299A      4.677593   300A      4.695787   301A      4.697462  
     302A      4.720577   303A      4.730344   304A      4.738997  
     305A      4.752512   306A      4.758850   307A      4.778600  
     308A      4.796206   309A      4.812631   310A      4.819936  
     311A      4.860810   312A      4.868141   313A      4.869699  
     314A      4.898487   315A      4.914830   316A      4.936447  
     317A      4.952237   318A      4.962893   319A      4.973210  
     320A      4.981408   321A      4.993337   322A      4.994847  
     323A      5.014992   324A      5.033197   325A      5.048746  
     326A      5.054293   327A      5.078204   328A      5.105999  
     329A      5.149455   330A      5.166270   331A      5.247335  
     332A      5.263108   333A      5.276199   334A      5.288318  
     335A      5.311274   336A      5.338456   337A      5.366732  
     338A      5.397636   339A      5.403737   340A      5.415820  
     341A      5.432683   342A      5.459285   343A      5.515566  
     344A      5.625816   345A      5.645755   346A      5.664097  
     347A      5.675401   348A      5.691897   349A      5.714778  
     350A      5.729339   351A      5.740230   352A      5.745430  
     353A      5.755717   354A      5.814257   355A      5.843374  
     356A      5.914793   357A      5.921669   358A      5.965730  
     359A      6.005266   360A      6.008812   361A      6.125167  
     362A      6.171661   363A      6.235467   364A      6.313625  
     365A      6.323963   366A      6.334860   367A      6.365766  
     368A      6.372150   369A      6.406242   370A      6.456994  
     371A      6.462101   372A      6.492065   373A      6.515789  
     374A      6.553716   375A      6.798798   376A      6.808971  
     377A      6.901207   378A      6.956441   379A      7.245060  
     380A      7.288813   381A      7.305472   382A      7.359675  
     383A      7.455465   384A      7.507986   385A      7.526432  
     386A      7.624542   387A      7.648949   388A      7.683968  
     389A      7.715323   390A      7.794276   391A      7.810742  
     392A      7.897356   393A      7.922982   394A      8.271730  
     395A      9.726232   396A      9.925853   397A     12.485570  
     398A     13.993572   399A     14.247853   400A     14.710489  
     401A     45.078247   402A     45.612275  

    Final Occupation by Irrep:
              A 
    DOCC [    16 ]

  @DF-RHF Final Energy:  -192.02435631174285

   => Energetics <=

    Nuclear Repulsion Energy =            118.6921255910408632
    One-Electron Energy =                -495.5365540572732925
    Two-Electron Energy =                 184.8200721544895941
    Total Energy =                       -192.0243563117428494

Computation Completed


Properties will be evaluated at   0.000000,   0.000000,   0.000000 [a0]

Properties computed using the SCF density matrix

  Nuclear Dipole Moment: [e a0]
     X:   -74.8470      Y:     2.2930      Z:    -2.7179

  Electronic Dipole Moment: [e a0]
     X:    74.3127      Y:    -2.8463      Z:     3.6976

  Dipole Moment: [e a0]
     X:    -0.5344      Y:    -0.5533      Z:     0.9797     Total:     1.2456

  Dipole Moment: [D]
     X:    -1.3583      Y:    -1.4063      Z:     2.4901     Total:     3.1660


*** tstop() called on r282 at Fri Sep 10 12:20:48 2021
Module time:
	user time   =      14.11 seconds =       0.24 minutes
	system time =       0.35 seconds =       0.01 minutes
	total time  =         14 seconds =       0.23 minutes
Total time:
	user time   =      42.78 seconds =       0.71 minutes
	system time =       1.13 seconds =       0.02 minutes
	total time  =         43 seconds =       0.72 minutes

  //>>>>>>>>>>>>>>>>>>>>>>>>>>>>>>>>>>>//
  //            Monomer B HF           //
  //<<<<<<<<<<<<<<<<<<<<<<<<<<<<<<<<<<<//


*** tstart() called on r282
*** at Fri Sep 10 12:20:48 2021

   => Loading Basis Set <=

    Name: JUN-CC-PVTZ
    Role: ORBITAL
    Keyword: BASIS
    atoms 1, 5, 7-10, 13-18 entry H          line    36 file /home/r08543048/miniconda3/share/psi4/basis/jun-cc-pvtz.gbs 
    atoms 2-3, 6, 11-12     entry C          line   217 file /home/r08543048/miniconda3/share/psi4/basis/jun-cc-pvtz.gbs 
    atoms 4                 entry O          line   305 file /home/r08543048/miniconda3/share/psi4/basis/jun-cc-pvtz.gbs 


         ---------------------------------------------------------
                                   SCF
               by Justin Turney, Rob Parrish, Andy Simmonett
                          and Daniel G. A. Smith
                              RHF Reference
                        1 Threads,  20980 MiB Core
         ---------------------------------------------------------

  ==> Geometry <==

    Molecular point group: c1
    Full point group: C1

    Geometry (in Angstrom), charge = 0, multiplicity = 1:

       Center              X                  Y                   Z               Mass       
    ------------   -----------------  -----------------  -----------------  -----------------
      Gh(H)          -1.253918417797     1.704436562438     1.166426463068     1.007825032230
      Gh(C)          -1.642746417797    -0.411503437562     0.642891463068    12.000000000000
      Gh(C)          -1.140592417797     0.971803562438     0.345800463068    12.000000000000
      Gh(O)          -0.639751417797     1.309194562438    -0.709787536932    15.994914619570
      Gh(H)          -2.702187417797    -0.314194437562     0.902192463068     1.007825032230
      Gh(C)          -1.428105417797    -1.393218437562    -0.494716536932    12.000000000000
      Gh(H)          -1.932322417797    -1.052511437562    -1.396908536932     1.007825032230
      Gh(H)          -0.368834417797    -1.485687437562    -0.728329536932     1.007825032230
      Gh(H)          -1.812879417797    -2.376669437562    -0.231506536932     1.007825032230
      Gh(H)          -1.150527417797    -0.738000437562     1.564332463068     1.007825032230
         C            2.160772582203    -0.239964437562     0.879760463068    12.000000000000
         C            2.502695582203    -0.202850437562    -0.605054536932    12.000000000000
         H            3.013809582203    -0.560690437562     1.477048463068     1.007825032230
         H            1.343568582203    -0.933848437562     1.078836463068     1.007825032230
         H            1.857779582203     0.744382562438     1.236194463068     1.007825032230
         H            2.786495582203    -1.190586437562    -0.967341536932     1.007825032230
         H            3.336523582203     0.471462562438    -0.796365536932     1.007825032230
         H            1.653640582203     0.143975562438    -1.192292536932     1.007825032230

  Running in c1 symmetry.

  Rotational constants: A =      0.13230  B =      0.05440  C =      0.04878 [cm^-1]
  Rotational constants: A =   3966.17006  B =   1630.76784  C =   1462.40952 [MHz]
  Nuclear repulsion =   42.340456962224465

  Charge       = 0
  Multiplicity = 1
  Electrons    = 18
  Nalpha       = 9
  Nbeta        = 9

  ==> Algorithm <==

  SCF Algorithm Type is DF.
  DIIS enabled.
  MOM disabled.
  Fractional occupation disabled.
  Guess Type is SAD.
  Energy threshold   = 1.00e-08
  Density threshold  = 1.00e-08
  Integral threshold = 0.00e+00

  ==> Primary Basis <==

  Basis Set: JUN-CC-PVTZ
    Blend: JUN-CC-PVTZ
    Number of shells: 150
    Number of basis function: 402
    Number of Cartesian functions: 450
    Spherical Harmonics?: true
    Max angular momentum: 3

   => Loading Basis Set <=

    Name: (JUN-CC-PVTZ AUX)
    Role: JKFIT
    Keyword: DF_BASIS_SCF
    atoms 1, 5, 7-10, 13-18 entry H          line    70 file /home/r08543048/miniconda3/share/psi4/basis/jun-cc-pvtz-jkfit.gbs 
    atoms 2-3, 6, 11-12     entry C          line   152 file /home/r08543048/miniconda3/share/psi4/basis/jun-cc-pvtz-jkfit.gbs 
    atoms 4                 entry O          line   272 file /home/r08543048/miniconda3/share/psi4/basis/jun-cc-pvtz-jkfit.gbs 

  ==> Pre-Iterations <==

   -------------------------------------------------------
    Irrep   Nso     Nmo     Nalpha   Nbeta   Ndocc  Nsocc
   -------------------------------------------------------
     A        402     402       0       0       0       0
   -------------------------------------------------------
    Total     402     402       9       9       9       0
   -------------------------------------------------------

  ==> Integral Setup <==

  ==> DiskDFJK: Density-Fitted J/K Matrices <==

    J tasked:                  Yes
    K tasked:                  Yes
    wK tasked:                  No
    OpenMP threads:              1
    Integrals threads:           1
    Memory [MiB]:            15735
    Algorithm:                Core
    Integral Cache:           LOAD
    Schwarz Cutoff:          1E-12
    Fitting Condition:       1E-10

   => Auxiliary Basis Set <=

  Basis Set: (JUN-CC-PVTZ AUX)
    Blend: JUN-CC-PVTZ-JKFIT
    Number of shells: 294
    Number of basis function: 930
    Number of Cartesian functions: 1116
    Spherical Harmonics?: true
    Max angular momentum: 4

  Minimum eigenvalue in the overlap matrix is 6.4965576911E-05.
  Using Symmetric Orthogonalization.

  SCF Guess: Superposition of Atomic Densities via on-the-fly atomic UHF.

  ==> Iterations <==

                           Total Energy        Delta E     RMS |[F,P]|

   @DF-RHF iter SAD:   -78.66007757421274   -7.86601e+01   0.00000e+00 
   @DF-RHF iter   1:   -79.14806880093010   -4.87991e-01   1.08037e-03 DIIS
   @DF-RHF iter   2:   -79.23889764386016   -9.08288e-02   4.93257e-04 DIIS
   @DF-RHF iter   3:   -79.25882775152165   -1.99301e-02   8.06713e-05 DIIS
   @DF-RHF iter   4:   -79.26009328505504   -1.26553e-03   1.11851e-05 DIIS
   @DF-RHF iter   5:   -79.26012111677801   -2.78317e-05   2.00284e-06 DIIS
   @DF-RHF iter   6:   -79.26012195978309   -8.43005e-07   2.41867e-07 DIIS
   @DF-RHF iter   7:   -79.26012197273124   -1.29481e-08   3.20671e-08 DIIS
   @DF-RHF iter   8:   -79.26012197288144   -1.50195e-10   1.06342e-08 DIIS
   @DF-RHF iter   9:   -79.26012197289391   -1.24771e-11   2.03636e-09 DIIS
  Energy and wave function converged.


  ==> Post-Iterations <==

    Orbital Energies [Eh]
    ---------------------

    Doubly Occupied:                                                      

       1A    -11.210532     2A    -11.209920     3A     -1.018515  
       4A     -0.841327     5A     -0.597664     6A     -0.596787  
       7A     -0.509395     8A     -0.487079     9A     -0.486140  

    Virtual:                                                              

      10A      0.033931    11A      0.048657    12A      0.051704  
      13A      0.060681    14A      0.070974    15A      0.083923  
      16A      0.087630    17A      0.089045    18A      0.092387  
      19A      0.107322    20A      0.117360    21A      0.119968  
      22A      0.122861    23A      0.123906    24A      0.139821  
      25A      0.141752    26A      0.151781    27A      0.162170  
      28A      0.168029    29A      0.191175    30A      0.199372  
      31A      0.212069    32A      0.224098    33A      0.236668  
      34A      0.239323    35A      0.270995    36A      0.281053  
      37A      0.281883    38A      0.287593    39A      0.300673  
      40A      0.305103    41A      0.308371    42A      0.310014  
      43A      0.324229    44A      0.328140    45A      0.341037  
      46A      0.346192    47A      0.352041    48A      0.354794  
      49A      0.360129    50A      0.370058    51A      0.371814  
      52A      0.384466    53A      0.385755    54A      0.391001  
      55A      0.401529    56A      0.405788    57A      0.416157  
      58A      0.431286    59A      0.434167    60A      0.459115  
      61A      0.472319    62A      0.480364    63A      0.492732  
      64A      0.500484    65A      0.507327    66A      0.510662  
      67A      0.523741    68A      0.529149    69A      0.547658  
      70A      0.554307    71A      0.563386    72A      0.578195  
      73A      0.594848    74A      0.604718    75A      0.616318  
      76A      0.630432    77A      0.636310    78A      0.648469  
      79A      0.664749    80A      0.668872    81A      0.687701  
      82A      0.693183    83A      0.714613    84A      0.739486  
      85A      0.748998    86A      0.763853    87A      0.771359  
      88A      0.779152    89A      0.783927    90A      0.790947  
      91A      0.800937    92A      0.822859    93A      0.829761  
      94A      0.849110    95A      0.867507    96A      0.886787  
      97A      0.894819    98A      0.913105    99A      0.926365  
     100A      0.948537   101A      0.955877   102A      0.970365  
     103A      0.991010   104A      0.996970   105A      1.029210  
     106A      1.044977   107A      1.062795   108A      1.072368  
     109A      1.087432   110A      1.088722   111A      1.112939  
     112A      1.138890   113A      1.151560   114A      1.157754  
     115A      1.165436   116A      1.188035   117A      1.196752  
     118A      1.224098   119A      1.227951   120A      1.247991  
     121A      1.264837   122A      1.270479   123A      1.276480  
     124A      1.299748   125A      1.317422   126A      1.332045  
     127A      1.338324   128A      1.342293   129A      1.365191  
     130A      1.370591   131A      1.379396   132A      1.384728  
     133A      1.394926   134A      1.402881   135A      1.414769  
     136A      1.421927   137A      1.425689   138A      1.462558  
     139A      1.470640   140A      1.488346   141A      1.492465  
     142A      1.499323   143A      1.527874   144A      1.537906  
     145A      1.563501   146A      1.571428   147A      1.589618  
     148A      1.593239   149A      1.596285   150A      1.622980  
     151A      1.634201   152A      1.646017   153A      1.655888  
     154A      1.669530   155A      1.680765   156A      1.690734  
     157A      1.698947   158A      1.717035   159A      1.730076  
     160A      1.767997   161A      1.769965   162A      1.799312  
     163A      1.823896   164A      1.838812   165A      1.883638  
     166A      1.887701   167A      1.912802   168A      1.920302  
     169A      1.939149   170A      1.958194   171A      1.982743  
     172A      2.011695   173A      2.090449   174A      2.099399  
     175A      2.133202   176A      2.184046   177A      2.186234  
     178A      2.274682   179A      2.355428   180A      2.407777  
     181A      2.418142   182A      2.460442   183A      2.513082  
     184A      2.591927   185A      2.616432   186A      2.638791  
     187A      2.708226   188A      2.744992   189A      2.752240  
     190A      2.786018   191A      2.797119   192A      2.825949  
     193A      2.838820   194A      2.851155   195A      2.864139  
     196A      2.895027   197A      2.980512   198A      3.017031  
     199A      3.035142   200A      3.083021   201A      3.110900  
     202A      3.126935   203A      3.190010   204A      3.196237  
     205A      3.206852   206A      3.212078   207A      3.224179  
     208A      3.269234   209A      3.278814   210A      3.318386  
     211A      3.341161   212A      3.360407   213A      3.433323  
     214A      3.442398   215A      3.445287   216A      3.492182  
     217A      3.499798   218A      3.509745   219A      3.513234  
     220A      3.528217   221A      3.544273   222A      3.556785  
     223A      3.568152   224A      3.591581   225A      3.604490  
     226A      3.610812   227A      3.627912   228A      3.646058  
     229A      3.669477   230A      3.679992   231A      3.709939  
     232A      3.735310   233A      3.775870   234A      3.798741  
     235A      3.805209   236A      3.811423   237A      3.816237  
     238A      3.835376   239A      3.840680   240A      3.853494  
     241A      3.876230   242A      3.883638   243A      3.888772  
     244A      3.903436   245A      3.912620   246A      3.924086  
     247A      3.941240   248A      3.957611   249A      3.977566  
     250A      4.010344   251A      4.030742   252A      4.049753  
     253A      4.117303   254A      4.127231   255A      4.174066  
     256A      4.188251   257A      4.194542   258A      4.204679  
     259A      4.223137   260A      4.236730   261A      4.249540  
     262A      4.261263   263A      4.283356   264A      4.288055  
     265A      4.304146   266A      4.311247   267A      4.395188  
     268A      4.400381   269A      4.410172   270A      4.427860  
     271A      4.451835   272A      4.462539   273A      4.474365  
     274A      4.484632   275A      4.491538   276A      4.494352  
     277A      4.513549   278A      4.520270   279A      4.528274  
     280A      4.538800   281A      4.565603   282A      4.574187  
     283A      4.582710   284A      4.596542   285A      4.618114  
     286A      4.640423   287A      4.658694   288A      4.675445  
     289A      4.693879   290A      4.702741   291A      4.707458  
     292A      4.728865   293A      4.735256   294A      4.761193  
     295A      4.782931   296A      4.790342   297A      4.800078  
     298A      4.813364   299A      4.821929   300A      4.834564  
     301A      4.856538   302A      4.869373   303A      4.879293  
     304A      4.885532   305A      4.902259   306A      4.918464  
     307A      4.944578   308A      4.954318   309A      4.958573  
     310A      4.971303   311A      4.992067   312A      5.002201  
     313A      5.031741   314A      5.053906   315A      5.087328  
     316A      5.109838   317A      5.133577   318A      5.185052  
     319A      5.188314   320A      5.221823   321A      5.226561  
     322A      5.267821   323A      5.273015   324A      5.292509  
     325A      5.312531   326A      5.320747   327A      5.327913  
     328A      5.345588   329A      5.356728   330A      5.365460  
     331A      5.447285   332A      5.566901   333A      5.610348  
     334A      5.652262   335A      5.692762   336A      5.711221  
     337A      5.733260   338A      5.756873   339A      5.762860  
     340A      5.766712   341A      5.780549   342A      5.794645  
     343A      5.815688   344A      5.864596   345A      5.874049  
     346A      5.918691   347A      5.926413   348A      5.932238  
     349A      6.010509   350A      6.075804   351A      6.105294  
     352A      6.153793   353A      6.230214   354A      6.332162  
     355A      6.365083   356A      6.385591   357A      6.430236  
     358A      6.442099   359A      6.458186   360A      6.477829  
     361A      6.493789   362A      6.506035   363A      6.513600  
     364A      6.535238   365A      6.617275   366A      6.629378  
     367A      6.868500   368A      6.901984   369A      6.966371  
     370A      7.022288   371A      7.323159   372A      7.350512  
     373A      7.541396   374A      7.556861   375A      7.697720  
     376A      7.713289   377A      7.788553   378A      7.885238  
     379A      7.897102   380A      8.017525   381A      8.112613  
     382A      8.250839   383A      8.469598   384A      8.550297  
     385A      9.415434   386A      9.450212   387A      9.649433  
     388A      9.840591   389A      9.866173   390A      9.931063  
     391A      9.944876   392A     10.087487   393A     11.017218  
     394A     11.666821   395A     11.968181   396A     13.738379  
     397A     14.238338   398A     14.670264   399A     43.511090  
     400A     44.840295   401A     45.874382   402A     60.721534  

    Final Occupation by Irrep:
              A 
    DOCC [     9 ]

  @DF-RHF Final Energy:   -79.26012197289391

   => Energetics <=

    Nuclear Repulsion Energy =             42.3404569622244651
    One-Electron Energy =                -189.2864399596990381
    Two-Electron Energy =                  67.6858610245806602
    Total Energy =                        -79.2601219728939128

Computation Completed


Properties will be evaluated at   0.000000,   0.000000,   0.000000 [a0]

Properties computed using the SCF density matrix

  Nuclear Dipole Moment: [e a0]
     X:    79.3168      Y:    -7.5253      Z:     4.6947

  Electronic Dipole Moment: [e a0]
     X:   -79.3157      Y:     7.5257      Z:    -4.6947

  Dipole Moment: [e a0]
     X:     0.0011      Y:     0.0005      Z:    -0.0000     Total:     0.0012

  Dipole Moment: [D]
     X:     0.0027      Y:     0.0012      Z:    -0.0001     Total:     0.0030


*** tstop() called on r282 at Fri Sep 10 12:21:00 2021
Module time:
	user time   =      11.54 seconds =       0.19 minutes
	system time =       0.27 seconds =       0.00 minutes
	total time  =         12 seconds =       0.20 minutes
Total time:
	user time   =      54.32 seconds =       0.91 minutes
	system time =       1.40 seconds =       0.02 minutes
	total time  =         55 seconds =       0.92 minutes
  Constructing Basis Sets for SAPT...

   => Loading Basis Set <=

    Name: (JUN-CC-PVTZ AUX)
    Role: RIFIT
    Keyword: DF_BASIS_SAPT
    atoms 1, 5, 7-10, 13-18 entry H          line    30 file /home/r08543048/miniconda3/share/psi4/basis/jun-cc-pvtz-ri.gbs 
    atoms 2-3, 6, 11-12     entry C          line   132 file /home/r08543048/miniconda3/share/psi4/basis/jun-cc-pvtz-ri.gbs 
    atoms 4                 entry O          line   244 file /home/r08543048/miniconda3/share/psi4/basis/jun-cc-pvtz-ri.gbs 


  //>>>>>>>>>>>>>>>>>>>>>>>>>>>>>>>>>>>//
  //               SAPT0               //
  //<<<<<<<<<<<<<<<<<<<<<<<<<<<<<<<<<<<//


*** tstart() called on r282
*** at Fri Sep 10 12:21:00 2021

        SAPT0  
    Ed Hohenstein
     6 June 2009

      Orbital Information
  --------------------------
    NSO        =       402
    NMO        =       402
    NRI        =       942
    NOCC A     =        16
    NOCC B     =         9
    FOCC A     =         0
    FOCC B     =         0
    NVIR A     =       386
    NVIR B     =       393

    Elst10,r            =    -0.002072839281 [Eh]
    Exch10              =     0.005028781956 [Eh]
    Exch10 (S^2)        =     0.005019704914 [Eh]

    Iter     Energy [mEh]          dE [mEh]         Residual      Time [s]
       1      -0.30487178       0.304871778       2.261484588             0
       2      -0.36926240       0.064390621       0.520121511             1
       3      -0.37017044       0.000908044       0.195213589             1
       4      -0.36918308      -0.000987361       0.070970875             2
       5      -0.36898758      -0.000195505       0.019198691             2
       6      -0.36910425       0.000116668       0.006285979             3
       7      -0.36909255      -0.000011693       0.002526451             3
       8      -0.36908655      -0.000006001       0.000533040             3
       9      -0.36908804       0.000001485       0.000177563             4
      10      -0.36908826       0.000000227       0.000071179             4
      11      -0.36908805      -0.000000218       0.000034040             5
      12      -0.36908807       0.000000025       0.000014787             5
      13      -0.36908810       0.000000026       0.000004333             6
      14      -0.36908809      -0.000000006       0.000001311             6
      15      -0.36908809      -0.000000002       0.000000392             7

    CHF Iterations converged


    Iter     Energy [mEh]          dE [mEh]         Residual      Time [s]
       1      -0.80663725       0.806637252       4.278922796             0
       2      -0.98041264       0.173775385       1.221690566             1
       3      -0.98790948       0.007496839       0.323218801             1
       4      -0.98402876      -0.003880713       0.089754148             2
       5      -0.98357405      -0.000454711       0.016466842             2
       6      -0.98378034       0.000206290       0.002905518             3
       7      -0.98376806      -0.000012282       0.000739985             3
       8      -0.98376566      -0.000002400       0.000195481             3
       9      -0.98376616       0.000000496       0.000037901             4
      10      -0.98376625       0.000000093       0.000006587             4
      11      -0.98376622      -0.000000032       0.000001113             5
      12      -0.98376622       0.000000002       0.000000179             5

    CHF Iterations converged

    Ind20,r (A<-B)      =    -0.000369088091 [Eh]
    Ind20,r (B<-A)      =    -0.000983766218 [Eh]
    Ind20,r             =    -0.001352854308 [Eh]
    Exch-Ind20,r (A<-B) =     0.000321009262 [Eh]
    Exch-Ind20,r (B<-A) =     0.000563055160 [Eh]
    Exch-Ind20,r        =     0.000884064422 [Eh]
    Disp20              =    -0.006188686915 [Eh]
    Disp20 (SS)         =    -0.003094343457 [Eh]
    Disp20 (OS)         =    -0.003094343457 [Eh]
    Exch-Disp20         =     0.000534814841 [Eh]
    Exch-Disp20 (SS)    =     0.000345038770 [Eh]
    Exch-Disp20 (OS)    =     0.000189776071 [Eh]

    SAPT Results 
  --------------------------------------------------------------------------------------------------------
    Electrostatics                 -2.07283928 [mEh]      -1.30072629 [kcal/mol]      -5.44223878 [kJ/mol]
      Elst10,r                     -2.07283928 [mEh]      -1.30072629 [kcal/mol]      -5.44223878 [kJ/mol]

    Exchange                        5.02878196 [mEh]       3.15560832 [kcal/mol]      13.20306521 [kJ/mol]
      Exch10                        5.02878196 [mEh]       3.15560832 [kcal/mol]      13.20306521 [kJ/mol]
      Exch10(S^2)                   5.01970491 [mEh]       3.14991239 [kcal/mol]      13.17923344 [kJ/mol]

    Induction                      -0.83005238 [mEh]      -0.52086574 [kcal/mol]      -2.17930224 [kJ/mol]
      Ind20,r                      -1.35285431 [mEh]      -0.84892890 [kcal/mol]      -3.55191850 [kJ/mol]
      Exch-Ind20,r                  0.88406442 [mEh]       0.55475880 [kcal/mol]       2.32111082 [kJ/mol]
      delta HF,r (2)               -0.36126250 [mEh]      -0.22669564 [kcal/mol]      -0.94849456 [kJ/mol]

    Dispersion                     -5.65387207 [mEh]      -3.54785829 [kcal/mol]     -14.84423909 [kJ/mol]
      Disp20                       -6.18868691 [mEh]      -3.88345967 [kcal/mol]     -16.24839526 [kJ/mol]
      Exch-Disp20                   0.53481484 [mEh]       0.33560138 [kcal/mol]       1.40415617 [kJ/mol]
      Disp20 (SS)                  -3.09434346 [mEh]      -1.94172983 [kcal/mol]      -8.12419763 [kJ/mol]
      Disp20 (OS)                  -3.09434346 [mEh]      -1.94172983 [kcal/mol]      -8.12419763 [kJ/mol]
      Exch-Disp20 (SS)              0.34503877 [mEh]       0.21651510 [kcal/mol]       0.90589917 [kJ/mol]
      Exch-Disp20 (OS)              0.18977607 [mEh]       0.11908628 [kcal/mol]       0.49825700 [kJ/mol]

  Total HF                          2.12589029 [mEh]       1.33401630 [kcal/mol]       5.58152419 [kJ/mol]
  Total SAPT0                      -3.52798178 [mEh]      -2.21384199 [kcal/mol]      -9.26271490 [kJ/mol]

  Special recipe for scaled SAPT0 (see Manual):
    Electrostatics sSAPT0          -2.07283928 [mEh]      -1.30072629 [kcal/mol]      -5.44223878 [kJ/mol]
    Exchange sSAPT0                 5.02878196 [mEh]       3.15560832 [kcal/mol]      13.20306521 [kJ/mol]
    Induction sSAPT0               -0.82524779 [mEh]      -0.51785081 [kcal/mol]      -2.16668778 [kJ/mol]
    Dispersion sSAPT0              -5.65096554 [mEh]      -3.54603441 [kcal/mol]     -14.83660797 [kJ/mol]
  Total sSAPT0                     -3.52027066 [mEh]      -2.20900319 [kcal/mol]      -9.24246933 [kJ/mol]
  --------------------------------------------------------------------------------------------------------

*** tstop() called on r282 at Fri Sep 10 12:21:53 2021
Module time:
	user time   =      44.28 seconds =       0.74 minutes
	system time =       8.46 seconds =       0.14 minutes
	total time  =         53 seconds =       0.88 minutes
Total time:
	user time   =      98.72 seconds =       1.65 minutes
	system time =       9.87 seconds =       0.16 minutes
	total time  =        108 seconds =       1.80 minutes

    Psi4 stopped on: Friday, 10 September 2021 12:21PM
    Psi4 wall time for execution: 0:01:48.75

*** Psi4 exiting successfully. Buy a developer a beer!
