
    -----------------------------------------------------------------------
          Psi4: An Open-Source Ab Initio Electronic Structure Package
                               Psi4 1.3.2 release

                         Git: Rev {HEAD} ecbda83 


    R. M. Parrish, L. A. Burns, D. G. A. Smith, A. C. Simmonett,
    A. E. DePrince III, E. G. Hohenstein, U. Bozkaya, A. Yu. Sokolov,
    R. Di Remigio, R. M. Richard, J. F. Gonthier, A. M. James,
    H. R. McAlexander, A. Kumar, M. Saitow, X. Wang, B. P. Pritchard,
    P. Verma, H. F. Schaefer III, K. Patkowski, R. A. King, E. F. Valeev,
    F. A. Evangelista, J. M. Turney, T. D. Crawford, and C. D. Sherrill,
    J. Chem. Theory Comput. 13(7) pp 3185--3197 (2017).
    (doi: 10.1021/acs.jctc.7b00174)


                         Additional Contributions by
    P. Kraus, H. Kruse, M. H. Lechner, M. C. Schieber, R. A. Shaw,
    A. Alenaizan, R. Galvelis, Z. L. Glick, S. Lehtola, and J. P. Misiewicz

    -----------------------------------------------------------------------


    Psi4 started on: Friday, 10 September 2021 12:51PM

    Process ID: 56648
    Host:       r282
    PSIDATADIR: /home/r08543048/miniconda3/share/psi4
    Memory:     500.0 MiB
    Threads:    1
    
  ==> Input File <==

--------------------------------------------------------------------------
# Any line starting with the # character is a comment line
#! Sample  computation

memory 22 gb

molecule Dimer {
0 1
 H -0.936118   -2.272309    1.286212
 C -1.102155   -0.132013    0.745168
 C -1.011693   -1.593689    0.415777
 O -1.018117   -2.046722   -0.712697
 H -0.229218    0.114002    1.361168
 C -1.199397    0.778375   -0.465745
 H -0.318786    0.632955   -1.093260
 H -2.055129    0.475833   -1.070751
 H -1.965782   -0.004779    1.408545
 C -1.327092    2.241538   -0.061898
 H -2.223295    2.403478    0.538440
 H -0.469263    2.561514    0.531260
 H -1.388431    2.889071   -0.935576


    
    
    
 --
0 1
 C  2.614143    0.858151   -0.010503
 C  2.448507   -0.657066   -0.003085
 H  1.703475    1.360064    0.316300
 H  2.847668    1.222623   -1.010217
 H  3.419551    1.171178    0.652911
 H  1.651848   -0.974874   -0.675018
 H  2.209969   -1.024175    0.995515
 H  3.364571   -1.152577   -0.322239
  
  
  
  
  
  





units angstrom

no_reorient
symmetry c1
}

set globals{
  basis jun-cc-pvtz
}

energy('sapt0')


--------------------------------------------------------------------------

  Memory set to  20.489 GiB by Python driver.

  //>>>>>>>>>>>>>>>>>>>>>>>>>>>>>>>>>>>//
  //              Dimer HF             //
  //<<<<<<<<<<<<<<<<<<<<<<<<<<<<<<<<<<<//


*** tstart() called on r282
*** at Fri Sep 10 12:51:56 2021

   => Loading Basis Set <=

    Name: JUN-CC-PVTZ
    Role: ORBITAL
    Keyword: BASIS
    atoms 1, 5, 7-9, 11-13, 16-21 entry H          line    36 file /home/r08543048/miniconda3/share/psi4/basis/jun-cc-pvtz.gbs 
    atoms 2-3, 6, 10, 14-15       entry C          line   217 file /home/r08543048/miniconda3/share/psi4/basis/jun-cc-pvtz.gbs 
    atoms 4                       entry O          line   305 file /home/r08543048/miniconda3/share/psi4/basis/jun-cc-pvtz.gbs 


         ---------------------------------------------------------
                                   SCF
               by Justin Turney, Rob Parrish, Andy Simmonett
                          and Daniel G. A. Smith
                              RHF Reference
                        1 Threads,  20980 MiB Core
         ---------------------------------------------------------

  ==> Geometry <==

    Molecular point group: c1
    Full point group: C1

    Geometry (in Angstrom), charge = 0, multiplicity = 1:

       Center              X                  Y                   Z               Mass       
    ------------   -----------------  -----------------  -----------------  -----------------
         H           -0.881644654897    -2.200483867622     1.305448674470     1.007825032230
         C           -1.047681654897    -0.060187867622     0.764404674470    12.000000000000
         C           -0.957219654897    -1.521863867622     0.435013674470    12.000000000000
         O           -0.963643654897    -1.974896867622    -0.693460325530    15.994914619570
         H           -0.174744654897     0.185827132378     1.380404674470     1.007825032230
         C           -1.144923654897     0.850200132378    -0.446508325530    12.000000000000
         H           -0.264312654897     0.704780132378    -1.074023325530     1.007825032230
         H           -2.000655654897     0.547658132378    -1.051514325530     1.007825032230
         H           -1.911308654897     0.067046132378     1.427781674470     1.007825032230
         C           -1.272618654897     2.313363132378    -0.042661325530    12.000000000000
         H           -2.168821654897     2.475303132378     0.557676674470     1.007825032230
         H           -0.414789654897     2.633339132378     0.550496674470     1.007825032230
         H           -1.333957654897     2.960896132378    -0.916339325530     1.007825032230
         C            2.668616345103     0.929976132378     0.008733674470    12.000000000000
         C            2.502980345103    -0.585240867622     0.016151674470    12.000000000000
         H            1.757948345103     1.431889132378     0.335536674470     1.007825032230
         H            2.902141345103     1.294448132378    -0.990980325530     1.007825032230
         H            3.474024345103     1.243003132378     0.672147674470     1.007825032230
         H            1.706321345103    -0.903048867622    -0.655781325530     1.007825032230
         H            2.264442345103    -0.952349867622     1.014751674470     1.007825032230
         H            3.419044345103    -1.080751867622    -0.303002325530     1.007825032230

  Running in c1 symmetry.

  Rotational constants: A =      0.06885  B =      0.05167  C =      0.03322 [cm^-1]
  Rotational constants: A =   2063.98707  B =   1548.92426  C =    995.97399 [MHz]
  Nuclear repulsion =  307.982442019836697

  Charge       = 0
  Multiplicity = 1
  Electrons    = 58
  Nalpha       = 29
  Nbeta        = 29

  ==> Algorithm <==

  SCF Algorithm Type is DF.
  DIIS enabled.
  MOM disabled.
  Fractional occupation disabled.
  Guess Type is SAD.
  Energy threshold   = 1.00e-08
  Density threshold  = 1.00e-08
  Integral threshold = 0.00e+00

  ==> Primary Basis <==

  Basis Set: JUN-CC-PVTZ
    Blend: JUN-CC-PVTZ
    Number of shells: 175
    Number of basis function: 469
    Number of Cartesian functions: 525
    Spherical Harmonics?: true
    Max angular momentum: 3

   => Loading Basis Set <=

    Name: (JUN-CC-PVTZ AUX)
    Role: JKFIT
    Keyword: DF_BASIS_SCF
    atoms 1, 5, 7-9, 11-13, 16-21 entry H          line    70 file /home/r08543048/miniconda3/share/psi4/basis/jun-cc-pvtz-jkfit.gbs 
    atoms 2-3, 6, 10, 14-15       entry C          line   152 file /home/r08543048/miniconda3/share/psi4/basis/jun-cc-pvtz-jkfit.gbs 
    atoms 4                       entry O          line   272 file /home/r08543048/miniconda3/share/psi4/basis/jun-cc-pvtz-jkfit.gbs 

  ==> Pre-Iterations <==

   -------------------------------------------------------
    Irrep   Nso     Nmo     Nalpha   Nbeta   Ndocc  Nsocc
   -------------------------------------------------------
     A        469     469       0       0       0       0
   -------------------------------------------------------
    Total     469     469      29      29      29       0
   -------------------------------------------------------

  ==> Integral Setup <==

  ==> DiskDFJK: Density-Fitted J/K Matrices <==

    J tasked:                  Yes
    K tasked:                  Yes
    wK tasked:                  No
    OpenMP threads:              1
    Integrals threads:           1
    Memory [MiB]:            15735
    Algorithm:                Core
    Integral Cache:           SAVE
    Schwarz Cutoff:          1E-12
    Fitting Condition:       1E-10

   => Auxiliary Basis Set <=

  Basis Set: (JUN-CC-PVTZ AUX)
    Blend: JUN-CC-PVTZ-JKFIT
    Number of shells: 343
    Number of basis function: 1085
    Number of Cartesian functions: 1302
    Spherical Harmonics?: true
    Max angular momentum: 4

  Minimum eigenvalue in the overlap matrix is 3.4984050171E-05.
  Using Symmetric Orthogonalization.

  SCF Guess: Superposition of Atomic Densities via on-the-fly atomic UHF.

  ==> Iterations <==

                           Total Energy        Delta E     RMS |[F,P]|

   @DF-RHF iter SAD:  -309.04961131122934   -3.09050e+02   0.00000e+00 
   @DF-RHF iter   1:  -310.01037348653983   -9.60762e-01   1.59324e-03 DIIS
   @DF-RHF iter   2:  -310.25221355263506   -2.41840e-01   8.93662e-04 DIIS
   @DF-RHF iter   3:  -310.32355248501688   -7.13389e-02   1.89628e-04 DIIS
   @DF-RHF iter   4:  -310.32835465805522   -4.80217e-03   8.70739e-05 DIIS
   @DF-RHF iter   5:  -310.32932032384070   -9.65666e-04   1.31255e-05 DIIS
   @DF-RHF iter   6:  -310.32936768679019   -4.73629e-05   5.03478e-06 DIIS
   @DF-RHF iter   7:  -310.32937387812188   -6.19133e-06   2.19664e-06 DIIS
   @DF-RHF iter   8:  -310.32937522152406   -1.34340e-06   8.02133e-07 DIIS
   @DF-RHF iter   9:  -310.32937544738121   -2.25857e-07   1.74816e-07 DIIS
   @DF-RHF iter  10:  -310.32937545724428   -9.86307e-09   5.01033e-08 DIIS
   @DF-RHF iter  11:  -310.32937545780248   -5.58202e-10   1.28750e-08 DIIS
   @DF-RHF iter  12:  -310.32937545785421   -5.17275e-11   4.20317e-09 DIIS
  Energy and wave function converged.


  ==> Post-Iterations <==

    Orbital Energies [Eh]
    ---------------------

    Doubly Occupied:                                                      

       1A    -20.556375     2A    -11.332309     3A    -11.241381  
       4A    -11.225270     5A    -11.218294     6A    -11.214256  
       7A    -11.212126     8A     -1.387786     9A     -1.083591  
      10A     -1.022179    11A     -0.977742    12A     -0.848950  
      13A     -0.845550    14A     -0.770541    15A     -0.673511  
      16A     -0.654542    17A     -0.633245    18A     -0.600981  
      19A     -0.597286    20A     -0.569847    21A     -0.569089  
      22A     -0.514780    23A     -0.512746    24A     -0.503341  
      25A     -0.492485    26A     -0.490173    27A     -0.488459  
      28A     -0.478092    29A     -0.420305  

    Virtual:                                                              

      30A      0.045030    31A      0.049841    32A      0.060544  
      33A      0.062834    34A      0.070049    35A      0.076372  
      36A      0.086034    37A      0.088883    38A      0.091440  
      39A      0.106742    40A      0.112109    41A      0.120046  
      42A      0.122598    43A      0.123617    44A      0.130516  
      45A      0.135132    46A      0.139610    47A      0.151062  
      48A      0.160448    49A      0.178611    50A      0.185052  
      51A      0.185366    52A      0.192365    53A      0.204674  
      54A      0.220680    55A      0.237911    56A      0.242236  
      57A      0.255118    58A      0.259467    59A      0.263219  
      60A      0.273064    61A      0.278210    62A      0.286013  
      63A      0.291926    64A      0.293758    65A      0.299671  
      66A      0.301553    67A      0.310386    68A      0.321557  
      69A      0.326831    70A      0.329402    71A      0.336335  
      72A      0.339966    73A      0.347095    74A      0.354349  
      75A      0.358748    76A      0.365372    77A      0.371969  
      78A      0.374052    79A      0.377817    80A      0.389673  
      81A      0.401969    82A      0.405771    83A      0.408763  
      84A      0.414900    85A      0.426640    86A      0.435165  
      87A      0.437535    88A      0.441625    89A      0.447631  
      90A      0.470421    91A      0.488731    92A      0.501891  
      93A      0.507236    94A      0.515850    95A      0.518401  
      96A      0.525457    97A      0.537987    98A      0.543537  
      99A      0.551352   100A      0.556442   101A      0.563439  
     102A      0.568020   103A      0.583577   104A      0.593699  
     105A      0.604549   106A      0.633696   107A      0.644146  
     108A      0.664117   109A      0.673863   110A      0.685048  
     111A      0.693012   112A      0.699406   113A      0.705008  
     114A      0.713663   115A      0.721263   116A      0.735672  
     117A      0.743932   118A      0.744868   119A      0.765079  
     120A      0.767597   121A      0.783920   122A      0.787835  
     123A      0.797198   124A      0.804806   125A      0.813904  
     126A      0.822086   127A      0.832088   128A      0.837162  
     129A      0.840249   130A      0.851296   131A      0.860227  
     132A      0.865522   133A      0.871953   134A      0.876675  
     135A      0.894931   136A      0.899863   137A      0.910444  
     138A      0.915944   139A      0.926710   140A      0.941950  
     141A      0.961507   142A      0.971410   143A      0.978210  
     144A      0.985120   145A      1.001015   146A      1.009244  
     147A      1.031827   148A      1.035479   149A      1.053470  
     150A      1.068402   151A      1.076284   152A      1.098438  
     153A      1.108807   154A      1.129637   155A      1.155161  
     156A      1.163193   157A      1.181902   158A      1.197798  
     159A      1.209705   160A      1.222315   161A      1.234626  
     162A      1.255810   163A      1.272038   164A      1.278267  
     165A      1.286613   166A      1.301860   167A      1.314954  
     168A      1.319804   169A      1.338156   170A      1.341989  
     171A      1.353955   172A      1.371191   173A      1.380919  
     174A      1.382320   175A      1.400641   176A      1.405692  
     177A      1.414640   178A      1.424649   179A      1.442069  
     180A      1.445085   181A      1.457838   182A      1.464975  
     183A      1.476569   184A      1.482334   185A      1.497129  
     186A      1.502317   187A      1.520655   188A      1.530529  
     189A      1.556096   190A      1.564171   191A      1.581400  
     192A      1.583886   193A      1.600680   194A      1.606527  
     195A      1.621866   196A      1.628739   197A      1.636613  
     198A      1.644690   199A      1.653282   200A      1.663316  
     201A      1.672091   202A      1.685766   203A      1.701027  
     204A      1.709603   205A      1.730906   206A      1.740756  
     207A      1.759803   208A      1.782252   209A      1.788171  
     210A      1.811890   211A      1.824742   212A      1.860845  
     213A      1.871634   214A      1.874957   215A      1.889115  
     216A      1.907394   217A      1.922569   218A      1.932378  
     219A      1.944902   220A      1.978025   221A      1.995284  
     222A      2.012738   223A      2.037120   224A      2.079330  
     225A      2.207403   226A      2.287008   227A      2.363112  
     228A      2.409339   229A      2.466652   230A      2.574813  
     231A      2.671198   232A      2.715090   233A      2.725073  
     234A      2.742434   235A      2.755740   236A      2.763471  
     237A      2.790654   238A      2.798560   239A      2.807143  
     240A      2.819793   241A      2.841449   242A      2.850482  
     243A      2.868792   244A      2.899689   245A      2.910537  
     246A      2.927650   247A      2.939820   248A      2.960674  
     249A      2.988686   250A      3.000475   251A      3.024197  
     252A      3.040384   253A      3.066800   254A      3.077791  
     255A      3.099697   256A      3.100805   257A      3.113926  
     258A      3.125064   259A      3.132476   260A      3.142509  
     261A      3.153106   262A      3.173259   263A      3.182157  
     264A      3.201213   265A      3.211750   266A      3.231652  
     267A      3.238782   268A      3.273946   269A      3.276691  
     270A      3.281360   271A      3.304150   272A      3.308809  
     273A      3.320910   274A      3.336877   275A      3.346338  
     276A      3.347570   277A      3.354347   278A      3.377728  
     279A      3.385196   280A      3.410682   281A      3.428164  
     282A      3.434107   283A      3.436375   284A      3.445864  
     285A      3.452463   286A      3.457160   287A      3.469276  
     288A      3.486605   289A      3.496763   290A      3.500922  
     291A      3.508582   292A      3.518570   293A      3.527845  
     294A      3.535015   295A      3.538784   296A      3.553132  
     297A      3.569833   298A      3.573551   299A      3.579374  
     300A      3.590878   301A      3.599493   302A      3.621966  
     303A      3.630408   304A      3.642260   305A      3.672648  
     306A      3.688930   307A      3.704793   308A      3.739270  
     309A      3.753221   310A      3.755027   311A      3.760917  
     312A      3.775792   313A      3.799127   314A      3.806980  
     315A      3.821284   316A      3.846971   317A      3.860770  
     318A      3.871868   319A      3.878106   320A      3.890264  
     321A      3.898109   322A      3.906579   323A      3.909542  
     324A      3.924097   325A      3.938346   326A      3.952966  
     327A      3.962587   328A      3.979766   329A      3.987540  
     330A      4.012731   331A      4.040416   332A      4.051763  
     333A      4.105735   334A      4.121557   335A      4.168279  
     336A      4.171905   337A      4.186580   338A      4.189887  
     339A      4.203204   340A      4.208112   341A      4.223877  
     342A      4.231630   343A      4.248348   344A      4.258805  
     345A      4.271505   346A      4.283166   347A      4.287927  
     348A      4.300449   349A      4.311270   350A      4.325856  
     351A      4.343570   352A      4.349628   353A      4.358371  
     354A      4.361973   355A      4.399438   356A      4.419386  
     357A      4.431597   358A      4.453506   359A      4.456836  
     360A      4.482056   361A      4.489031   362A      4.493293  
     363A      4.501748   364A      4.519524   365A      4.522559  
     366A      4.526731   367A      4.542162   368A      4.555598  
     369A      4.566760   370A      4.581680   371A      4.594634  
     372A      4.620129   373A      4.635410   374A      4.669178  
     375A      4.676521   376A      4.685100   377A      4.695727  
     378A      4.712122   379A      4.724169   380A      4.747770  
     381A      4.790493   382A      4.807613   383A      4.815996  
     384A      4.821346   385A      4.841768   386A      4.851956  
     387A      4.872656   388A      4.884580   389A      4.928415  
     390A      4.952803   391A      4.995092   392A      5.015839  
     393A      5.058663   394A      5.087128   395A      5.098413  
     396A      5.111171   397A      5.141471   398A      5.170986  
     399A      5.175468   400A      5.213161   401A      5.229378  
     402A      5.270516   403A      5.270814   404A      5.283486  
     405A      5.286614   406A      5.294314   407A      5.308063  
     408A      5.326376   409A      5.329654   410A      5.345908  
     411A      5.353450   412A      5.368180   413A      5.373656  
     414A      5.400826   415A      5.426245   416A      5.433233  
     417A      5.518493   418A      5.573238   419A      5.589311  
     420A      5.613120   421A      5.665431   422A      5.686843  
     423A      5.692615   424A      5.698760   425A      5.709604  
     426A      5.749809   427A      5.756968   428A      5.764259  
     429A      5.769716   430A      5.776610   431A      5.783755  
     432A      5.796432   433A      5.824376   434A      5.846156  
     435A      5.880770   436A      5.904947   437A      5.917068  
     438A      5.927246   439A      5.939204   440A      5.952629  
     441A      5.968584   442A      5.981006   443A      6.114065  
     444A      6.133023   445A      6.240212   446A      6.318537  
     447A      6.458196   448A      6.486941   449A      6.500880  
     450A      6.502475   451A      6.522632   452A      6.540415  
     453A      6.595807   454A      6.619771   455A      6.800088  
     456A      6.964307   457A      7.225607   458A      7.279724  
     459A      7.300691   460A      7.426355   461A      7.626343  
     462A      7.713716   463A     12.481083   464A     13.917660  
     465A     14.202881   466A     14.271858   467A     14.437535  
     468A     14.580879   469A     14.745836  

    Final Occupation by Irrep:
              A 
    DOCC [    29 ]

  @DF-RHF Final Energy:  -310.32937545785421

   => Energetics <=

    Nuclear Repulsion Energy =            307.9824420198366965
    One-Electron Energy =               -1030.3531688174421106
    Two-Electron Energy =                 412.0413513397511451
    Total Energy =                       -310.3293754578542121

Computation Completed


Properties will be evaluated at   0.000000,   0.000000,   0.000000 [a0]

Properties computed using the SCF density matrix

  Nuclear Dipole Moment: [e a0]
     X:     5.9705      Y:     7.8723      Z:     2.1084

  Electronic Dipole Moment: [e a0]
     X:    -5.9597      Y:    -7.2146      Z:    -1.1537

  Dipole Moment: [e a0]
     X:     0.0108      Y:     0.6577      Z:     0.9548     Total:     1.1594

  Dipole Moment: [D]
     X:     0.0273      Y:     1.6717      Z:     2.4268     Total:     2.9469


*** tstop() called on r282 at Fri Sep 10 12:52:50 2021
Module time:
	user time   =      52.00 seconds =       0.87 minutes
	system time =       1.19 seconds =       0.02 minutes
	total time  =         54 seconds =       0.90 minutes
Total time:
	user time   =      52.00 seconds =       0.87 minutes
	system time =       1.19 seconds =       0.02 minutes
	total time  =         54 seconds =       0.90 minutes

  //>>>>>>>>>>>>>>>>>>>>>>>>>>>>>>>>>>>//
  //            Monomer A HF           //
  //<<<<<<<<<<<<<<<<<<<<<<<<<<<<<<<<<<<//


*** tstart() called on r282
*** at Fri Sep 10 12:52:50 2021

   => Loading Basis Set <=

    Name: JUN-CC-PVTZ
    Role: ORBITAL
    Keyword: BASIS
    atoms 1, 5, 7-9, 11-13, 16-21 entry H          line    36 file /home/r08543048/miniconda3/share/psi4/basis/jun-cc-pvtz.gbs 
    atoms 2-3, 6, 10, 14-15       entry C          line   217 file /home/r08543048/miniconda3/share/psi4/basis/jun-cc-pvtz.gbs 
    atoms 4                       entry O          line   305 file /home/r08543048/miniconda3/share/psi4/basis/jun-cc-pvtz.gbs 


         ---------------------------------------------------------
                                   SCF
               by Justin Turney, Rob Parrish, Andy Simmonett
                          and Daniel G. A. Smith
                              RHF Reference
                        1 Threads,  20980 MiB Core
         ---------------------------------------------------------

  ==> Geometry <==

    Molecular point group: c1
    Full point group: C1

    Geometry (in Angstrom), charge = 0, multiplicity = 1:

       Center              X                  Y                   Z               Mass       
    ------------   -----------------  -----------------  -----------------  -----------------
         H           -0.881644654897    -2.200483867622     1.305448674470     1.007825032230
         C           -1.047681654897    -0.060187867622     0.764404674470    12.000000000000
         C           -0.957219654897    -1.521863867622     0.435013674470    12.000000000000
         O           -0.963643654897    -1.974896867622    -0.693460325530    15.994914619570
         H           -0.174744654897     0.185827132378     1.380404674470     1.007825032230
         C           -1.144923654897     0.850200132378    -0.446508325530    12.000000000000
         H           -0.264312654897     0.704780132378    -1.074023325530     1.007825032230
         H           -2.000655654897     0.547658132378    -1.051514325530     1.007825032230
         H           -1.911308654897     0.067046132378     1.427781674470     1.007825032230
         C           -1.272618654897     2.313363132378    -0.042661325530    12.000000000000
         H           -2.168821654897     2.475303132378     0.557676674470     1.007825032230
         H           -0.414789654897     2.633339132378     0.550496674470     1.007825032230
         H           -1.333957654897     2.960896132378    -0.916339325530     1.007825032230
      Gh(C)           2.668616345103     0.929976132378     0.008733674470    12.000000000000
      Gh(C)           2.502980345103    -0.585240867622     0.016151674470    12.000000000000
      Gh(H)           1.757948345103     1.431889132378     0.335536674470     1.007825032230
      Gh(H)           2.902141345103     1.294448132378    -0.990980325530     1.007825032230
      Gh(H)           3.474024345103     1.243003132378     0.672147674470     1.007825032230
      Gh(H)           1.706321345103    -0.903048867622    -0.655781325530     1.007825032230
      Gh(H)           2.264442345103    -0.952349867622     1.014751674470     1.007825032230
      Gh(H)           3.419044345103    -1.080751867622    -0.303002325530     1.007825032230

  Running in c1 symmetry.

  Rotational constants: A =      0.06885  B =      0.05167  C =      0.03322 [cm^-1]
  Rotational constants: A =   2063.98707  B =   1548.92426  C =    995.97399 [MHz]
  Nuclear repulsion =  172.417305003505277

  Charge       = 0
  Multiplicity = 1
  Electrons    = 40
  Nalpha       = 20
  Nbeta        = 20

  ==> Algorithm <==

  SCF Algorithm Type is DF.
  DIIS enabled.
  MOM disabled.
  Fractional occupation disabled.
  Guess Type is SAD.
  Energy threshold   = 1.00e-08
  Density threshold  = 1.00e-08
  Integral threshold = 0.00e+00

  ==> Primary Basis <==

  Basis Set: JUN-CC-PVTZ
    Blend: JUN-CC-PVTZ
    Number of shells: 175
    Number of basis function: 469
    Number of Cartesian functions: 525
    Spherical Harmonics?: true
    Max angular momentum: 3

   => Loading Basis Set <=

    Name: (JUN-CC-PVTZ AUX)
    Role: JKFIT
    Keyword: DF_BASIS_SCF
    atoms 1, 5, 7-9, 11-13, 16-21 entry H          line    70 file /home/r08543048/miniconda3/share/psi4/basis/jun-cc-pvtz-jkfit.gbs 
    atoms 2-3, 6, 10, 14-15       entry C          line   152 file /home/r08543048/miniconda3/share/psi4/basis/jun-cc-pvtz-jkfit.gbs 
    atoms 4                       entry O          line   272 file /home/r08543048/miniconda3/share/psi4/basis/jun-cc-pvtz-jkfit.gbs 

  ==> Pre-Iterations <==

   -------------------------------------------------------
    Irrep   Nso     Nmo     Nalpha   Nbeta   Ndocc  Nsocc
   -------------------------------------------------------
     A        469     469       0       0       0       0
   -------------------------------------------------------
    Total     469     469      20      20      20       0
   -------------------------------------------------------

  ==> Integral Setup <==

  ==> DiskDFJK: Density-Fitted J/K Matrices <==

    J tasked:                  Yes
    K tasked:                  Yes
    wK tasked:                  No
    OpenMP threads:              1
    Integrals threads:           1
    Memory [MiB]:            15735
    Algorithm:                Core
    Integral Cache:           LOAD
    Schwarz Cutoff:          1E-12
    Fitting Condition:       1E-10

   => Auxiliary Basis Set <=

  Basis Set: (JUN-CC-PVTZ AUX)
    Blend: JUN-CC-PVTZ-JKFIT
    Number of shells: 343
    Number of basis function: 1085
    Number of Cartesian functions: 1302
    Spherical Harmonics?: true
    Max angular momentum: 4

  Minimum eigenvalue in the overlap matrix is 3.4984050171E-05.
  Using Symmetric Orthogonalization.

  SCF Guess: Superposition of Atomic Densities via on-the-fly atomic UHF.

  ==> Iterations <==

                           Total Energy        Delta E     RMS |[F,P]|

   @DF-RHF iter SAD:  -230.24417561740970   -2.30244e+02   0.00000e+00 
   @DF-RHF iter   1:  -230.86154860499758   -6.17373e-01   1.31437e-03 DIIS
   @DF-RHF iter   2:  -231.01362319396475   -1.52075e-01   8.05453e-04 DIIS
   @DF-RHF iter   3:  -231.06784150900262   -5.42183e-02   1.58435e-04 DIIS
   @DF-RHF iter   4:  -231.07126596037335   -3.42445e-03   6.80035e-05 DIIS
   @DF-RHF iter   5:  -231.07192059463316   -6.54634e-04   1.18987e-05 DIIS
   @DF-RHF iter   6:  -231.07196048768964   -3.98931e-05   4.91426e-06 DIIS
   @DF-RHF iter   7:  -231.07196674331666   -6.25563e-06   2.15536e-06 DIIS
   @DF-RHF iter   8:  -231.07196805774768   -1.31443e-06   7.03447e-07 DIIS
   @DF-RHF iter   9:  -231.07196823405712   -1.76309e-07   1.30748e-07 DIIS
   @DF-RHF iter  10:  -231.07196823984683   -5.78970e-09   3.41798e-08 DIIS
   @DF-RHF iter  11:  -231.07196824009685   -2.50026e-10   9.82924e-09 DIIS
  Energy and wave function converged.


  ==> Post-Iterations <==

    Orbital Energies [Eh]
    ---------------------

    Doubly Occupied:                                                      

       1A    -20.557221     2A    -11.332545     3A    -11.242326  
       4A    -11.225802     5A    -11.218520     6A     -1.388047  
       7A     -1.083732     8A     -0.978012     9A     -0.849095  
      10A     -0.770856    11A     -0.673783    12A     -0.651011  
      13A     -0.633445    14A     -0.570100    15A     -0.568715  
      16A     -0.513030    17A     -0.502441    18A     -0.492195  
      19A     -0.480378    20A     -0.420752  

    Virtual:                                                              

      21A      0.036165    22A      0.047249    23A      0.048382  
      24A      0.058786    25A      0.066617    26A      0.075078  
      27A      0.080548    28A      0.085478    29A      0.089380  
      30A      0.103131    31A      0.105899    32A      0.113588  
      33A      0.119278    34A      0.122245    35A      0.123557  
      36A      0.131139    37A      0.138004    38A      0.150892  
      39A      0.156015    40A      0.168039    41A      0.175950  
      42A      0.180204    43A      0.189199    44A      0.196230  
      45A      0.208759    46A      0.212836    47A      0.233298  
      48A      0.238190    49A      0.241379    50A      0.261715  
      51A      0.265858    52A      0.274915    53A      0.280113  
      54A      0.285798    55A      0.291780    56A      0.294729  
      57A      0.299482    58A      0.310260    59A      0.318957  
      60A      0.322927    61A      0.329568    62A      0.336982  
      63A      0.340259    64A      0.350020    65A      0.350495  
      66A      0.363823    67A      0.376152    68A      0.377986  
      69A      0.383086    70A      0.393561    71A      0.395130  
      72A      0.405221    73A      0.410259    74A      0.418995  
      75A      0.427247    76A      0.434364    77A      0.437504  
      78A      0.441149    79A      0.454109    80A      0.461043  
      81A      0.478143    82A      0.491479    83A      0.494039  
      84A      0.497767    85A      0.515758    86A      0.523509  
      87A      0.529621    88A      0.537069    89A      0.541290  
      90A      0.552486    91A      0.553700    92A      0.563591  
      93A      0.570759    94A      0.578336    95A      0.582535  
      96A      0.589478    97A      0.606443    98A      0.624898  
      99A      0.633673   100A      0.643515   101A      0.657068  
     102A      0.663008   103A      0.669907   104A      0.679333  
     105A      0.683561   106A      0.706159   107A      0.710074  
     108A      0.725024   109A      0.746776   110A      0.749484  
     111A      0.761261   112A      0.775609   113A      0.786870  
     114A      0.795434   115A      0.815418   116A      0.821739  
     117A      0.830420   118A      0.840553   119A      0.847438  
     120A      0.874166   121A      0.881551   122A      0.885691  
     123A      0.907321   124A      0.915688   125A      0.920169  
     126A      0.949269   127A      0.955247   128A      0.968488  
     129A      0.989653   130A      1.003829   131A      1.010998  
     132A      1.039712   133A      1.047883   134A      1.062597  
     135A      1.075920   136A      1.083060   137A      1.091313  
     138A      1.103525   139A      1.121014   140A      1.128511  
     141A      1.135306   142A      1.140166   143A      1.152164  
     144A      1.168194   145A      1.181490   146A      1.191193  
     147A      1.196421   148A      1.206252   149A      1.217745  
     150A      1.221683   151A      1.237139   152A      1.245318  
     153A      1.270551   154A      1.283597   155A      1.292054  
     156A      1.297027   157A      1.304709   158A      1.322231  
     159A      1.332572   160A      1.338826   161A      1.352582  
     162A      1.362904   163A      1.381884   164A      1.386886  
     165A      1.396182   166A      1.410914   167A      1.415438  
     168A      1.427807   169A      1.435563   170A      1.447823  
     171A      1.461049   172A      1.465085   173A      1.477316  
     174A      1.482452   175A      1.491511   176A      1.507861  
     177A      1.519626   178A      1.525257   179A      1.540511  
     180A      1.556360   181A      1.568076   182A      1.580577  
     183A      1.586731   184A      1.589699   185A      1.604546  
     186A      1.613703   187A      1.621069   188A      1.647022  
     189A      1.651862   190A      1.655857   191A      1.676745  
     192A      1.689019   193A      1.692755   194A      1.719642  
     195A      1.727435   196A      1.759629   197A      1.761248  
     198A      1.767975   199A      1.790059   200A      1.816639  
     201A      1.820606   202A      1.843160   203A      1.860479  
     204A      1.880531   205A      1.885402   206A      1.909400  
     207A      1.934049   208A      1.947537   209A      1.983286  
     210A      1.991031   211A      2.010177   212A      2.032109  
     213A      2.041142   214A      2.089491   215A      2.134633  
     216A      2.192490   217A      2.238169   218A      2.292860  
     219A      2.301341   220A      2.347815   221A      2.369125  
     222A      2.403212   223A      2.415176   224A      2.433942  
     225A      2.469582   226A      2.529110   227A      2.572853  
     228A      2.582801   229A      2.695993   230A      2.730331  
     231A      2.749785   232A      2.796265   233A      2.820285  
     234A      2.852172   235A      2.867058   236A      2.889312  
     237A      2.912910   238A      2.939225   239A      2.953397  
     240A      3.001350   241A      3.020892   242A      3.043413  
     243A      3.071439   244A      3.107389   245A      3.115658  
     246A      3.130710   247A      3.136547   248A      3.142394  
     249A      3.179680   250A      3.213010   251A      3.272376  
     252A      3.282448   253A      3.298494   254A      3.310294  
     255A      3.324644   256A      3.342724   257A      3.358260  
     258A      3.367837   259A      3.400207   260A      3.424405  
     261A      3.436469   262A      3.448112   263A      3.465965  
     264A      3.471506   265A      3.481142   266A      3.493123  
     267A      3.494846   268A      3.506494   269A      3.521250  
     270A      3.531051   271A      3.545442   272A      3.558736  
     273A      3.560244   274A      3.575142   275A      3.578729  
     276A      3.581527   277A      3.583862   278A      3.590159  
     279A      3.615402   280A      3.635064   281A      3.641781  
     282A      3.665711   283A      3.673591   284A      3.679478  
     285A      3.714341   286A      3.743138   287A      3.757849  
     288A      3.763516   289A      3.776190   290A      3.788120  
     291A      3.793338   292A      3.802868   293A      3.817864  
     294A      3.825664   295A      3.840959   296A      3.846969  
     297A      3.872976   298A      3.882830   299A      3.906585  
     300A      3.920275   301A      3.928734   302A      3.932378  
     303A      3.945034   304A      3.954403   305A      3.971975  
     306A      4.002145   307A      4.015230   308A      4.039102  
     309A      4.068278   310A      4.082286   311A      4.088275  
     312A      4.117263   313A      4.134215   314A      4.144081  
     315A      4.160687   316A      4.183401   317A      4.188188  
     318A      4.197154   319A      4.200865   320A      4.238522  
     321A      4.263231   322A      4.278037   323A      4.295659  
     324A      4.322342   325A      4.328113   326A      4.341673  
     327A      4.344828   328A      4.355907   329A      4.366661  
     330A      4.382126   331A      4.396900   332A      4.419662  
     333A      4.431079   334A      4.444222   335A      4.455074  
     336A      4.467928   337A      4.479762   338A      4.494943  
     339A      4.508295   340A      4.512605   341A      4.514142  
     342A      4.521042   343A      4.538685   344A      4.547436  
     345A      4.554640   346A      4.564431   347A      4.579411  
     348A      4.601436   349A      4.611686   350A      4.617707  
     351A      4.635843   352A      4.658097   353A      4.675816  
     354A      4.690898   355A      4.716797   356A      4.721620  
     357A      4.725297   358A      4.742106   359A      4.761531  
     360A      4.772308   361A      4.799074   362A      4.804542  
     363A      4.818577   364A      4.829967   365A      4.839865  
     366A      4.852734   367A      4.862146   368A      4.873560  
     369A      4.883451   370A      4.886258   371A      4.908710  
     372A      4.919827   373A      4.953818   374A      4.972212  
     375A      4.982014   376A      4.998617   377A      5.000947  
     378A      5.009091   379A      5.021483   380A      5.037811  
     381A      5.047675   382A      5.068653   383A      5.073368  
     384A      5.089973   385A      5.105838   386A      5.123133  
     387A      5.143447   388A      5.165096   389A      5.178904  
     390A      5.253255   391A      5.279199   392A      5.288367  
     393A      5.301859   394A      5.321691   395A      5.358681  
     396A      5.370574   397A      5.389781   398A      5.398184  
     399A      5.400467   400A      5.414056   401A      5.433906  
     402A      5.433917   403A      5.520669   404A      5.573182  
     405A      5.589251   406A      5.614352   407A      5.640225  
     408A      5.646798   409A      5.665680   410A      5.698394  
     411A      5.709371   412A      5.722442   413A      5.728737  
     414A      5.759637   415A      5.766242   416A      5.817994  
     417A      5.845935   418A      5.880308   419A      5.905441  
     420A      5.934069   421A      5.957612   422A      5.975586  
     423A      6.002351   424A      6.016795   425A      6.114188  
     426A      6.132066   427A      6.217355   428A      6.238977  
     429A      6.317551   430A      6.331343   431A      6.339572  
     432A      6.365674   433A      6.370549   434A      6.404646  
     435A      6.452392   436A      6.456168   437A      6.512528  
     438A      6.528050   439A      6.593161   440A      6.605224  
     441A      6.796302   442A      6.799369   443A      6.896584  
     444A      6.962547   445A      7.225121   446A      7.279038  
     447A      7.300202   448A      7.351038   449A      7.420849  
     450A      7.494727   451A      7.520592   452A      7.626074  
     453A      7.654816   454A      7.694010   455A      7.714020  
     456A      7.790992   457A      7.800388   458A      7.897783  
     459A      7.916250   460A      8.293695   461A      9.732478  
     462A      9.939316   463A     12.482527   464A     13.925010  
     465A     14.255864   466A     14.402329   467A     14.566821  
     468A     45.162928   469A     45.708253  

    Final Occupation by Irrep:
              A 
    DOCC [    20 ]

  @DF-RHF Final Energy:  -231.07196824009685

   => Energetics <=

    Nuclear Repulsion Energy =            172.4173050035052768
    One-Electron Energy =                -654.6745290354613189
    Two-Electron Energy =                 251.1852557918592197
    Total Energy =                       -231.0719682400968509

Computation Completed


Properties will be evaluated at   0.000000,   0.000000,   0.000000 [a0]

Properties computed using the SCF density matrix

  Nuclear Dipole Moment: [e a0]
     X:   -82.0029      Y:     2.0112      Z:     1.6889

  Electronic Dipole Moment: [e a0]
     X:    81.9883      Y:    -1.3262      Z:    -0.6819

  Dipole Moment: [e a0]
     X:    -0.0146      Y:     0.6849      Z:     1.0070     Total:     1.2179

  Dipole Moment: [D]
     X:    -0.0370      Y:     1.7409      Z:     2.5595     Total:     3.0957


*** tstop() called on r282 at Fri Sep 10 12:53:19 2021
Module time:
	user time   =      28.97 seconds =       0.48 minutes
	system time =       0.58 seconds =       0.01 minutes
	total time  =         29 seconds =       0.48 minutes
Total time:
	user time   =      80.98 seconds =       1.35 minutes
	system time =       1.77 seconds =       0.03 minutes
	total time  =         83 seconds =       1.38 minutes

  //>>>>>>>>>>>>>>>>>>>>>>>>>>>>>>>>>>>//
  //            Monomer B HF           //
  //<<<<<<<<<<<<<<<<<<<<<<<<<<<<<<<<<<<//


*** tstart() called on r282
*** at Fri Sep 10 12:53:19 2021

   => Loading Basis Set <=

    Name: JUN-CC-PVTZ
    Role: ORBITAL
    Keyword: BASIS
    atoms 1, 5, 7-9, 11-13, 16-21 entry H          line    36 file /home/r08543048/miniconda3/share/psi4/basis/jun-cc-pvtz.gbs 
    atoms 2-3, 6, 10, 14-15       entry C          line   217 file /home/r08543048/miniconda3/share/psi4/basis/jun-cc-pvtz.gbs 
    atoms 4                       entry O          line   305 file /home/r08543048/miniconda3/share/psi4/basis/jun-cc-pvtz.gbs 


         ---------------------------------------------------------
                                   SCF
               by Justin Turney, Rob Parrish, Andy Simmonett
                          and Daniel G. A. Smith
                              RHF Reference
                        1 Threads,  20980 MiB Core
         ---------------------------------------------------------

  ==> Geometry <==

    Molecular point group: c1
    Full point group: C1

    Geometry (in Angstrom), charge = 0, multiplicity = 1:

       Center              X                  Y                   Z               Mass       
    ------------   -----------------  -----------------  -----------------  -----------------
      Gh(H)          -0.881644654897    -2.200483867622     1.305448674470     1.007825032230
      Gh(C)          -1.047681654897    -0.060187867622     0.764404674470    12.000000000000
      Gh(C)          -0.957219654897    -1.521863867622     0.435013674470    12.000000000000
      Gh(O)          -0.963643654897    -1.974896867622    -0.693460325530    15.994914619570
      Gh(H)          -0.174744654897     0.185827132378     1.380404674470     1.007825032230
      Gh(C)          -1.144923654897     0.850200132378    -0.446508325530    12.000000000000
      Gh(H)          -0.264312654897     0.704780132378    -1.074023325530     1.007825032230
      Gh(H)          -2.000655654897     0.547658132378    -1.051514325530     1.007825032230
      Gh(H)          -1.911308654897     0.067046132378     1.427781674470     1.007825032230
      Gh(C)          -1.272618654897     2.313363132378    -0.042661325530    12.000000000000
      Gh(H)          -2.168821654897     2.475303132378     0.557676674470     1.007825032230
      Gh(H)          -0.414789654897     2.633339132378     0.550496674470     1.007825032230
      Gh(H)          -1.333957654897     2.960896132378    -0.916339325530     1.007825032230
         C            2.668616345103     0.929976132378     0.008733674470    12.000000000000
         C            2.502980345103    -0.585240867622     0.016151674470    12.000000000000
         H            1.757948345103     1.431889132378     0.335536674470     1.007825032230
         H            2.902141345103     1.294448132378    -0.990980325530     1.007825032230
         H            3.474024345103     1.243003132378     0.672147674470     1.007825032230
         H            1.706321345103    -0.903048867622    -0.655781325530     1.007825032230
         H            2.264442345103    -0.952349867622     1.014751674470     1.007825032230
         H            3.419044345103    -1.080751867622    -0.303002325530     1.007825032230

  Running in c1 symmetry.

  Rotational constants: A =      0.06885  B =      0.05167  C =      0.03322 [cm^-1]
  Rotational constants: A =   2063.98707  B =   1548.92426  C =    995.97399 [MHz]
  Nuclear repulsion =   42.329775934528769

  Charge       = 0
  Multiplicity = 1
  Electrons    = 18
  Nalpha       = 9
  Nbeta        = 9

  ==> Algorithm <==

  SCF Algorithm Type is DF.
  DIIS enabled.
  MOM disabled.
  Fractional occupation disabled.
  Guess Type is SAD.
  Energy threshold   = 1.00e-08
  Density threshold  = 1.00e-08
  Integral threshold = 0.00e+00

  ==> Primary Basis <==

  Basis Set: JUN-CC-PVTZ
    Blend: JUN-CC-PVTZ
    Number of shells: 175
    Number of basis function: 469
    Number of Cartesian functions: 525
    Spherical Harmonics?: true
    Max angular momentum: 3

   => Loading Basis Set <=

    Name: (JUN-CC-PVTZ AUX)
    Role: JKFIT
    Keyword: DF_BASIS_SCF
    atoms 1, 5, 7-9, 11-13, 16-21 entry H          line    70 file /home/r08543048/miniconda3/share/psi4/basis/jun-cc-pvtz-jkfit.gbs 
    atoms 2-3, 6, 10, 14-15       entry C          line   152 file /home/r08543048/miniconda3/share/psi4/basis/jun-cc-pvtz-jkfit.gbs 
    atoms 4                       entry O          line   272 file /home/r08543048/miniconda3/share/psi4/basis/jun-cc-pvtz-jkfit.gbs 

  ==> Pre-Iterations <==

   -------------------------------------------------------
    Irrep   Nso     Nmo     Nalpha   Nbeta   Ndocc  Nsocc
   -------------------------------------------------------
     A        469     469       0       0       0       0
   -------------------------------------------------------
    Total     469     469       9       9       9       0
   -------------------------------------------------------

  ==> Integral Setup <==

  ==> DiskDFJK: Density-Fitted J/K Matrices <==

    J tasked:                  Yes
    K tasked:                  Yes
    wK tasked:                  No
    OpenMP threads:              1
    Integrals threads:           1
    Memory [MiB]:            15735
    Algorithm:                Core
    Integral Cache:           LOAD
    Schwarz Cutoff:          1E-12
    Fitting Condition:       1E-10

   => Auxiliary Basis Set <=

  Basis Set: (JUN-CC-PVTZ AUX)
    Blend: JUN-CC-PVTZ-JKFIT
    Number of shells: 343
    Number of basis function: 1085
    Number of Cartesian functions: 1302
    Spherical Harmonics?: true
    Max angular momentum: 4

  Minimum eigenvalue in the overlap matrix is 3.4984050171E-05.
  Using Symmetric Orthogonalization.

  SCF Guess: Superposition of Atomic Densities via on-the-fly atomic UHF.

  ==> Iterations <==

                           Total Energy        Delta E     RMS |[F,P]|

   @DF-RHF iter SAD:   -78.65896619262625   -7.86590e+01   0.00000e+00 
   @DF-RHF iter   1:   -79.14814602868047   -4.89180e-01   9.25635e-04 DIIS
   @DF-RHF iter   2:   -79.23890733336289   -9.07613e-02   4.22861e-04 DIIS
   @DF-RHF iter   3:   -79.25884383013565   -1.99365e-02   6.91356e-05 DIIS
   @DF-RHF iter   4:   -79.26010980518505   -1.26598e-03   9.59532e-06 DIIS
   @DF-RHF iter   5:   -79.26013766751582   -2.78623e-05   1.71384e-06 DIIS
   @DF-RHF iter   6:   -79.26013850789704   -8.40381e-07   2.06066e-07 DIIS
   @DF-RHF iter   7:   -79.26013852078793   -1.28909e-08   2.29252e-08 DIIS
   @DF-RHF iter   8:   -79.26013852092267   -1.34733e-10   3.96111e-09 DIIS
  Energy and wave function converged.


  ==> Post-Iterations <==

    Orbital Energies [Eh]
    ---------------------

    Doubly Occupied:                                                      

       1A    -11.210649     2A    -11.210036     3A     -1.018317  
       4A     -0.841822     5A     -0.597157     6A     -0.596398  
       7A     -0.510273     8A     -0.486935     9A     -0.485988  

    Virtual:                                                              

      10A      0.030989    11A      0.042516    12A      0.052640  
      13A      0.061693    14A      0.068540    15A      0.071429  
      16A      0.082867    17A      0.085329    18A      0.089041  
      19A      0.108849    20A      0.111112    21A      0.113968  
      22A      0.117189    23A      0.120805    24A      0.122330  
      25A      0.126627    26A      0.141543    27A      0.146003  
      28A      0.155284    29A      0.157846    30A      0.169461  
      31A      0.176384    32A      0.179495    33A      0.198319  
      34A      0.202494    35A      0.216554    36A      0.231500  
      37A      0.245139    38A      0.252084    39A      0.260083  
      40A      0.270043    41A      0.278249    42A      0.286253  
      43A      0.291284    44A      0.298250    45A      0.311405  
      46A      0.316569    47A      0.317917    48A      0.322752  
      49A      0.328097    50A      0.334312    51A      0.337369  
      52A      0.349061    53A      0.353857    54A      0.355185  
      55A      0.358460    56A      0.363027    57A      0.373247  
      58A      0.377972    59A      0.386264    60A      0.395294  
      61A      0.397050    62A      0.407482    63A      0.415186  
      64A      0.420314    65A      0.433558    66A      0.455810  
      67A      0.462088    68A      0.469565    69A      0.469741  
      70A      0.489579    71A      0.493043    72A      0.502495  
      73A      0.517966    74A      0.518643    75A      0.524531  
      76A      0.539624    77A      0.546353    78A      0.547884  
      79A      0.561274    80A      0.571962    81A      0.588367  
      82A      0.598093    83A      0.599510    84A      0.609312  
      85A      0.616082    86A      0.625045    87A      0.640497  
      88A      0.649817    89A      0.660110    90A      0.663892  
      91A      0.665706    92A      0.686358    93A      0.692656  
      94A      0.709706    95A      0.719133    96A      0.729469  
      97A      0.736719    98A      0.740712    99A      0.757740  
     100A      0.775454   101A      0.785176   102A      0.792497  
     103A      0.797537   104A      0.815078   105A      0.827187  
     106A      0.838416   107A      0.851387   108A      0.867688  
     109A      0.871732   110A      0.883204   111A      0.899275  
     112A      0.912295   113A      0.929481   114A      0.946657  
     115A      0.974045   116A      0.977649   117A      0.988646  
     118A      0.999175   119A      1.014748   120A      1.032971  
     121A      1.057437   122A      1.067471   123A      1.075021  
     124A      1.088849   125A      1.094281   126A      1.102418  
     127A      1.121214   128A      1.140419   129A      1.144975  
     130A      1.171455   131A      1.183131   132A      1.202040  
     133A      1.212461   134A      1.228736   135A      1.239376  
     136A      1.248963   137A      1.268172   138A      1.272911  
     139A      1.282652   140A      1.292707   141A      1.296196  
     142A      1.313128   143A      1.325444   144A      1.332530  
     145A      1.341857   146A      1.351980   147A      1.357237  
     148A      1.367005   149A      1.369366   150A      1.386100  
     151A      1.402896   152A      1.403236   153A      1.407745  
     154A      1.414914   155A      1.419505   156A      1.446541  
     157A      1.453035   158A      1.464165   159A      1.468673  
     160A      1.478516   161A      1.486864   162A      1.501289  
     163A      1.512540   164A      1.529781   165A      1.542020  
     166A      1.553641   167A      1.566957   168A      1.570468  
     169A      1.583535   170A      1.592220   171A      1.608320  
     172A      1.611368   173A      1.619074   174A      1.627113  
     175A      1.648490   176A      1.660674   177A      1.671333  
     178A      1.677445   179A      1.689862   180A      1.700335  
     181A      1.708930   182A      1.732017   183A      1.749217  
     184A      1.763916   185A      1.781926   186A      1.790632  
     187A      1.821379   188A      1.833688   189A      1.858266  
     190A      1.882599   191A      1.913954   192A      1.937423  
     193A      1.942454   194A      1.952437   195A      1.964434  
     196A      1.975798   197A      1.989565   198A      2.013527  
     199A      2.028057   200A      2.076126   201A      2.123868  
     202A      2.166783   203A      2.171819   204A      2.193823  
     205A      2.214244   206A      2.263496   207A      2.312306  
     208A      2.332728   209A      2.390621   210A      2.441470  
     211A      2.446179   212A      2.456260   213A      2.506347  
     214A      2.588321   215A      2.615446   216A      2.634416  
     217A      2.664956   218A      2.691352   219A      2.756252  
     220A      2.764703   221A      2.782811   222A      2.796518  
     223A      2.808152   224A      2.831045   225A      2.844944  
     226A      2.858495   227A      2.878392   228A      2.912417  
     229A      2.960401   230A      2.986008   231A      3.008801  
     232A      3.082570   233A      3.113545   234A      3.137316  
     235A      3.193335   236A      3.196689   237A      3.213012  
     238A      3.217871   239A      3.238032   240A      3.251863  
     241A      3.295040   242A      3.323509   243A      3.359766  
     244A      3.366468   245A      3.432633   246A      3.439979  
     247A      3.445874   248A      3.492176   249A      3.501687  
     250A      3.507758   251A      3.517188   252A      3.530214  
     253A      3.536561   254A      3.547750   255A      3.559149  
     256A      3.581861   257A      3.583978   258A      3.594750  
     259A      3.605577   260A      3.623751   261A      3.651161  
     262A      3.652985   263A      3.663904   264A      3.694503  
     265A      3.731624   266A      3.766806   267A      3.776209  
     268A      3.793793   269A      3.802486   270A      3.804524  
     271A      3.816587   272A      3.845513   273A      3.847985  
     274A      3.854185   275A      3.864633   276A      3.868265  
     277A      3.877346   278A      3.884677   279A      3.893109  
     280A      3.906838   281A      3.912447   282A      3.921197  
     283A      3.935188   284A      3.954696   285A      3.961873  
     286A      3.982063   287A      3.999771   288A      4.010060  
     289A      4.043863   290A      4.071779   291A      4.101250  
     292A      4.129523   293A      4.157709   294A      4.166149  
     295A      4.184001   296A      4.193781   297A      4.204437  
     298A      4.214715   299A      4.220127   300A      4.247507  
     301A      4.257836   302A      4.268106   303A      4.286829  
     304A      4.307075   305A      4.316520   306A      4.342277  
     307A      4.385824   308A      4.389354   309A      4.412905  
     310A      4.421747   311A      4.445366   312A      4.462262  
     313A      4.472947   314A      4.481234   315A      4.494074  
     316A      4.496730   317A      4.504533   318A      4.508822  
     319A      4.523217   320A      4.539272   321A      4.546075  
     322A      4.556979   323A      4.574643   324A      4.582852  
     325A      4.583250   326A      4.593459   327A      4.603488  
     328A      4.621795   329A      4.635845   330A      4.668560  
     331A      4.673961   332A      4.687011   333A      4.693009  
     334A      4.701656   335A      4.707480   336A      4.709443  
     337A      4.743105   338A      4.752640   339A      4.762798  
     340A      4.767554   341A      4.782052   342A      4.790720  
     343A      4.804657   344A      4.815281   345A      4.833059  
     346A      4.842512   347A      4.854225   348A      4.861399  
     349A      4.870141   350A      4.894493   351A      4.899823  
     352A      4.906643   353A      4.922126   354A      4.924337  
     355A      4.943169   356A      4.955896   357A      4.964719  
     358A      4.975697   359A      4.993945   360A      5.015629  
     361A      5.025515   362A      5.047809   363A      5.067134  
     364A      5.081292   365A      5.104344   366A      5.126387  
     367A      5.157718   368A      5.178105   369A      5.185422  
     370A      5.216668   371A      5.227145   372A      5.230491  
     373A      5.251887   374A      5.277271   375A      5.292760  
     376A      5.314159   377A      5.330770   378A      5.336373  
     379A      5.353372   380A      5.356787   381A      5.369142  
     382A      5.420013   383A      5.437352   384A      5.459353  
     385A      5.523065   386A      5.568276   387A      5.618588  
     388A      5.649409   389A      5.658202   390A      5.690875  
     391A      5.699497   392A      5.723766   393A      5.767313  
     394A      5.773798   395A      5.776315   396A      5.780189  
     397A      5.798243   398A      5.804198   399A      5.811625  
     400A      5.871994   401A      5.893284   402A      5.922338  
     403A      5.942178   404A      5.944817   405A      6.003886  
     406A      6.019195   407A      6.045343   408A      6.137411  
     409A      6.162998   410A      6.227404   411A      6.241732  
     412A      6.288491   413A      6.353891   414A      6.392307  
     415A      6.432170   416A      6.455862   417A      6.466020  
     418A      6.495106   419A      6.503015   420A      6.506157  
     421A      6.514875   422A      6.524535   423A      6.556134  
     424A      6.629497   425A      6.647611   426A      6.659802  
     427A      6.792303   428A      6.895454   429A      6.976537  
     430A      7.010475   431A      7.029733   432A      7.302535  
     433A      7.333606   434A      7.541386   435A      7.562312  
     436A      7.647279   437A      7.665073   438A      7.699516  
     439A      7.709646   440A      7.791805   441A      7.833846  
     442A      7.877247   443A      7.913731   444A      8.121950  
     445A      8.210447   446A      8.276490   447A      8.387022  
     448A      8.517228   449A      8.648910   450A      9.429073  
     451A      9.469916   452A      9.647858   453A      9.740076  
     454A      9.810916   455A      9.865727   456A      9.898367  
     457A      9.917689   458A     10.077709   459A     11.029649  
     460A     11.657087   461A     11.986191   462A     13.746036  
     463A     14.291505   464A     14.724148   465A     43.640584  
     466A     44.374718   467A     45.597587   468A     45.666811  
     469A     60.723412  

    Final Occupation by Irrep:
              A 
    DOCC [     9 ]

  @DF-RHF Final Energy:   -79.26013852092267

   => Energetics <=

    Nuclear Repulsion Energy =             42.3297759345287687
    One-Electron Energy =                -189.2646790588741510
    Two-Electron Energy =                  67.6747646034227301
    Total Energy =                        -79.2601385209226663

Computation Completed


Properties will be evaluated at   0.000000,   0.000000,   0.000000 [a0]

Properties computed using the SCF density matrix

  Nuclear Dipole Moment: [e a0]
     X:    87.9734      Y:     5.8612      Z:     0.4195

  Electronic Dipole Moment: [e a0]
     X:   -87.9719      Y:    -5.8611      Z:    -0.4201

  Dipole Moment: [e a0]
     X:     0.0014      Y:     0.0000      Z:    -0.0007     Total:     0.0016

  Dipole Moment: [D]
     X:     0.0037      Y:     0.0001      Z:    -0.0017     Total:     0.0040


*** tstop() called on r282 at Fri Sep 10 12:53:38 2021
Module time:
	user time   =      18.71 seconds =       0.31 minutes
	system time =       0.43 seconds =       0.01 minutes
	total time  =         19 seconds =       0.32 minutes
Total time:
	user time   =      99.69 seconds =       1.66 minutes
	system time =       2.20 seconds =       0.04 minutes
	total time  =        102 seconds =       1.70 minutes
  Constructing Basis Sets for SAPT...

   => Loading Basis Set <=

    Name: (JUN-CC-PVTZ AUX)
    Role: RIFIT
    Keyword: DF_BASIS_SAPT
    atoms 1, 5, 7-9, 11-13, 16-21 entry H          line    30 file /home/r08543048/miniconda3/share/psi4/basis/jun-cc-pvtz-ri.gbs 
    atoms 2-3, 6, 10, 14-15       entry C          line   132 file /home/r08543048/miniconda3/share/psi4/basis/jun-cc-pvtz-ri.gbs 
    atoms 4                       entry O          line   244 file /home/r08543048/miniconda3/share/psi4/basis/jun-cc-pvtz-ri.gbs 


  //>>>>>>>>>>>>>>>>>>>>>>>>>>>>>>>>>>>//
  //               SAPT0               //
  //<<<<<<<<<<<<<<<<<<<<<<<<<<<<<<<<<<<//


*** tstart() called on r282
*** at Fri Sep 10 12:53:38 2021

        SAPT0  
    Ed Hohenstein
     6 June 2009

      Orbital Information
  --------------------------
    NSO        =       469
    NMO        =       469
    NRI        =      1099
    NOCC A     =        20
    NOCC B     =         9
    FOCC A     =         0
    FOCC B     =         0
    NVIR A     =       449
    NVIR B     =       460

    Elst10,r            =    -0.001824719000 [Eh]
    Exch10              =     0.005172363996 [Eh]
    Exch10 (S^2)        =     0.005164078716 [Eh]

    Iter     Energy [mEh]          dE [mEh]         Residual      Time [s]
       1      -0.24666661       0.246666614       1.957313107             1
       2      -0.29453851       0.047871901       0.425384714             2
       3      -0.29525405       0.000715534       0.143360934             3
       4      -0.29461903      -0.000635020       0.047849962             4
       5      -0.29448543      -0.000133602       0.012666579             4
       6      -0.29455210       0.000066678       0.004993492             5
       7      -0.29454701      -0.000005090       0.002693777             6
       8      -0.29454038      -0.000006634       0.000945817             7
       9      -0.29454190       0.000001517       0.000374072             8
      10      -0.29454260       0.000000702       0.000141794             8
      11      -0.29454223      -0.000000368       0.000042277             9
      12      -0.29454222      -0.000000010       0.000012843            10
      13      -0.29454225       0.000000029       0.000002993            11
      14      -0.29454225      -0.000000003       0.000000908            12

    CHF Iterations converged


    Iter     Energy [mEh]          dE [mEh]         Residual      Time [s]
       1      -0.69883590       0.698835899       3.767157363             0
       2      -0.83953213       0.140696232       0.955565892             1
       3      -0.84756835       0.008036222       0.194634052             2
       4      -0.84501438      -0.002553972       0.058816604             2
       5      -0.84482874      -0.000185637       0.012652436             3
       6      -0.84497471       0.000145965       0.001901326             4
       7      -0.84496392      -0.000010793       0.000389151             5
       8      -0.84496411       0.000000193       0.000072458             5
       9      -0.84496437       0.000000258       0.000016622             6
      10      -0.84496436      -0.000000012       0.000004541             7
      11      -0.84496434      -0.000000017       0.000000888             7

    CHF Iterations converged

    Ind20,r (A<-B)      =    -0.000294542248 [Eh]
    Ind20,r (B<-A)      =    -0.000844964338 [Eh]
    Ind20,r             =    -0.001139506586 [Eh]
    Exch-Ind20,r (A<-B) =     0.000242695375 [Eh]
    Exch-Ind20,r (B<-A) =     0.000601878568 [Eh]
    Exch-Ind20,r        =     0.000844573943 [Eh]
    Disp20              =    -0.006864079708 [Eh]
    Disp20 (SS)         =    -0.003432039854 [Eh]
    Disp20 (OS)         =    -0.003432039854 [Eh]
    Exch-Disp20         =     0.000557042564 [Eh]
    Exch-Disp20 (SS)    =     0.000366500145 [Eh]
    Exch-Disp20 (OS)    =     0.000190542419 [Eh]

    SAPT Results 
  --------------------------------------------------------------------------------------------------------
    Electrostatics                 -1.82471900 [mEh]      -1.14502846 [kcal/mol]      -4.79079908 [kJ/mol]
      Elst10,r                     -1.82471900 [mEh]      -1.14502846 [kcal/mol]      -4.79079908 [kJ/mol]

    Exchange                        5.17236400 [mEh]       3.24570741 [kcal/mol]      13.58003980 [kJ/mol]
      Exch10                        5.17236400 [mEh]       3.24570741 [kcal/mol]      13.58003980 [kJ/mol]
      Exch10(S^2)                   5.16407872 [mEh]       3.24050832 [kcal/mol]      13.55828680 [kJ/mol]

    Induction                      -0.61634183 [mEh]      -0.38676034 [kcal/mol]      -1.61820525 [kJ/mol]
      Ind20,r                      -1.13950659 [mEh]      -0.71505118 [kcal/mol]      -2.99177413 [kJ/mol]
      Exch-Ind20,r                  0.84457394 [mEh]       0.52997815 [kcal/mol]       2.21742858 [kJ/mol]
      delta HF,r (2)               -0.32140919 [mEh]      -0.20168731 [kcal/mol]      -0.84385970 [kJ/mol]

    Dispersion                     -6.30703714 [mEh]      -3.95772556 [kcal/mol]     -16.55912374 [kJ/mol]
      Disp20                       -6.86407971 [mEh]      -4.30727505 [kcal/mol]     -18.02163879 [kJ/mol]
      Exch-Disp20                   0.55704256 [mEh]       0.34954949 [kcal/mol]       1.46251505 [kJ/mol]
      Disp20 (SS)                  -3.43203985 [mEh]      -2.15363752 [kcal/mol]      -9.01081940 [kJ/mol]
      Disp20 (OS)                  -3.43203985 [mEh]      -2.15363752 [kcal/mol]      -9.01081940 [kJ/mol]
      Exch-Disp20 (SS)              0.36650014 [mEh]       0.22998231 [kcal/mol]       0.96224600 [kJ/mol]
      Exch-Disp20 (OS)              0.19054242 [mEh]       0.11956717 [kcal/mol]       0.50026905 [kJ/mol]

  Total HF                          2.73130317 [mEh]       1.71391861 [kcal/mol]       7.17103547 [kJ/mol]
  Total SAPT0                      -3.57573398 [mEh]      -2.24380695 [kcal/mol]      -9.38808827 [kJ/mol]

  Special recipe for scaled SAPT0 (see Manual):
    Electrostatics sSAPT0          -1.82471900 [mEh]      -1.14502846 [kcal/mol]      -4.79079908 [kJ/mol]
    Exchange sSAPT0                 5.17236400 [mEh]       3.24570741 [kcal/mol]      13.58003980 [kJ/mol]
    Induction sSAPT0               -0.61227019 [mEh]      -0.38420534 [kcal/mol]      -1.60751515 [kJ/mol]
    Dispersion sSAPT0              -6.30435167 [mEh]      -3.95604040 [kcal/mol]     -16.55207304 [kJ/mol]
  Total sSAPT0                     -3.56897686 [mEh]      -2.23956679 [kcal/mol]      -9.37034746 [kJ/mol]
  --------------------------------------------------------------------------------------------------------

*** tstop() called on r282 at Fri Sep 10 12:55:06 2021
Module time:
	user time   =      75.32 seconds =       1.26 minutes
	system time =      12.52 seconds =       0.21 minutes
	total time  =         88 seconds =       1.47 minutes
Total time:
	user time   =     175.14 seconds =       2.92 minutes
	system time =      14.72 seconds =       0.25 minutes
	total time  =        190 seconds =       3.17 minutes

    Psi4 stopped on: Friday, 10 September 2021 12:55PM
    Psi4 wall time for execution: 0:03:10.19

*** Psi4 exiting successfully. Buy a developer a beer!
