
    -----------------------------------------------------------------------
          Psi4: An Open-Source Ab Initio Electronic Structure Package
                               Psi4 1.3.2 release

                         Git: Rev {HEAD} ecbda83 


    R. M. Parrish, L. A. Burns, D. G. A. Smith, A. C. Simmonett,
    A. E. DePrince III, E. G. Hohenstein, U. Bozkaya, A. Yu. Sokolov,
    R. Di Remigio, R. M. Richard, J. F. Gonthier, A. M. James,
    H. R. McAlexander, A. Kumar, M. Saitow, X. Wang, B. P. Pritchard,
    P. Verma, H. F. Schaefer III, K. Patkowski, R. A. King, E. F. Valeev,
    F. A. Evangelista, J. M. Turney, T. D. Crawford, and C. D. Sherrill,
    J. Chem. Theory Comput. 13(7) pp 3185--3197 (2017).
    (doi: 10.1021/acs.jctc.7b00174)


                         Additional Contributions by
    P. Kraus, H. Kruse, M. H. Lechner, M. C. Schieber, R. A. Shaw,
    A. Alenaizan, R. Galvelis, Z. L. Glick, S. Lehtola, and J. P. Misiewicz

    -----------------------------------------------------------------------


    Psi4 started on: Friday, 10 September 2021 12:46PM

    Process ID: 56641
    Host:       r282
    PSIDATADIR: /home/r08543048/miniconda3/share/psi4
    Memory:     500.0 MiB
    Threads:    1
    
  ==> Input File <==

--------------------------------------------------------------------------
# Any line starting with the # character is a comment line
#! Sample  computation

memory 22 gb

molecule Dimer {
0 1
 H 1.528346   -1.810384    0.995415
 C 1.685022    0.390880    0.814445
 C 1.563335   -0.995060    0.249087
 O 1.503755   -1.250063   -0.938394
 H 2.573312    0.395259    1.454500
 C 1.745003    1.479603   -0.241545
 H 2.594091    1.325160   -0.904665
 H 0.845450    1.473515   -0.853954
 H 1.840062    2.459386    0.222918
 H 0.839919    0.530738    1.496624
 
 
 


    
    
    
 --
0 1
 C  -2.135470    1.297956   -0.006920
 C  -1.917120   -0.102552   -0.566426
 C  -1.960414   -1.165727    0.524053
 H  -3.103052    1.369955    0.491996
 H  -1.367486    1.547716    0.727578
 H  -2.104965    2.054787   -0.790590
 H  -0.958731   -0.151797   -1.086657
 H  -2.682844   -0.319592   -1.313805
 H  -1.771560   -2.160903    0.122502
 H  -1.210780   -0.966620    1.292649
 H  -2.933929   -1.177320    1.016468
  
  
  





units angstrom

no_reorient
symmetry c1
}

set globals{
  basis jun-cc-pvtz
}

energy('sapt0')


--------------------------------------------------------------------------

  Memory set to  20.489 GiB by Python driver.

  //>>>>>>>>>>>>>>>>>>>>>>>>>>>>>>>>>>>//
  //              Dimer HF             //
  //<<<<<<<<<<<<<<<<<<<<<<<<<<<<<<<<<<<//


*** tstart() called on r282
*** at Fri Sep 10 12:46:48 2021

   => Loading Basis Set <=

    Name: JUN-CC-PVTZ
    Role: ORBITAL
    Keyword: BASIS
    atoms 1, 5, 7-10, 14-21 entry H          line    36 file /home/r08543048/miniconda3/share/psi4/basis/jun-cc-pvtz.gbs 
    atoms 2-3, 6, 11-13     entry C          line   217 file /home/r08543048/miniconda3/share/psi4/basis/jun-cc-pvtz.gbs 
    atoms 4                 entry O          line   305 file /home/r08543048/miniconda3/share/psi4/basis/jun-cc-pvtz.gbs 


         ---------------------------------------------------------
                                   SCF
               by Justin Turney, Rob Parrish, Andy Simmonett
                          and Daniel G. A. Smith
                              RHF Reference
                        1 Threads,  20980 MiB Core
         ---------------------------------------------------------

  ==> Geometry <==

    Molecular point group: c1
    Full point group: C1

    Geometry (in Angstrom), charge = 0, multiplicity = 1:

       Center              X                  Y                   Z               Mass       
    ------------   -----------------  -----------------  -----------------  -----------------
         H            1.470970693912    -1.766039305219     1.023266469613     1.007825032230
         C            1.627646693912     0.435224694781     0.842296469613    12.000000000000
         C            1.505959693912    -0.950715305219     0.276938469613    12.000000000000
         O            1.446379693912    -1.205718305219    -0.910542530387    15.994914619570
         H            2.515936693912     0.439603694781     1.482351469613     1.007825032230
         C            1.687627693912     1.523947694781    -0.213693530387    12.000000000000
         H            2.536715693912     1.369504694781    -0.876813530387     1.007825032230
         H            0.788074693912     1.517859694781    -0.826102530387     1.007825032230
         H            1.782686693912     2.503730694781     0.250769469613     1.007825032230
         H            0.782543693912     0.575082694781     1.524475469613     1.007825032230
         C           -2.192845306088     1.342300694781     0.020931469613    12.000000000000
         C           -1.974495306088    -0.058207305219    -0.538574530387    12.000000000000
         C           -2.017789306088    -1.121382305219     0.551904469613    12.000000000000
         H           -3.160427306088     1.414299694781     0.519847469613     1.007825032230
         H           -1.424861306088     1.592060694781     0.755429469613     1.007825032230
         H           -2.162340306088     2.099131694781    -0.762738530387     1.007825032230
         H           -1.016106306088    -0.107452305219    -1.058805530387     1.007825032230
         H           -2.740219306088    -0.275247305219    -1.285953530387     1.007825032230
         H           -1.828935306088    -2.116558305219     0.150353469613     1.007825032230
         H           -1.268155306088    -0.922275305219     1.320500469613     1.007825032230
         H           -2.991304306088    -1.132975305219     1.044319469613     1.007825032230

  Running in c1 symmetry.

  Rotational constants: A =      0.09612  B =      0.04395  C =      0.03586 [cm^-1]
  Rotational constants: A =   2881.75294  B =   1317.60563  C =   1075.05274 [MHz]
  Nuclear repulsion =  310.984840738353967

  Charge       = 0
  Multiplicity = 1
  Electrons    = 58
  Nalpha       = 29
  Nbeta        = 29

  ==> Algorithm <==

  SCF Algorithm Type is DF.
  DIIS enabled.
  MOM disabled.
  Fractional occupation disabled.
  Guess Type is SAD.
  Energy threshold   = 1.00e-08
  Density threshold  = 1.00e-08
  Integral threshold = 0.00e+00

  ==> Primary Basis <==

  Basis Set: JUN-CC-PVTZ
    Blend: JUN-CC-PVTZ
    Number of shells: 175
    Number of basis function: 469
    Number of Cartesian functions: 525
    Spherical Harmonics?: true
    Max angular momentum: 3

   => Loading Basis Set <=

    Name: (JUN-CC-PVTZ AUX)
    Role: JKFIT
    Keyword: DF_BASIS_SCF
    atoms 1, 5, 7-10, 14-21 entry H          line    70 file /home/r08543048/miniconda3/share/psi4/basis/jun-cc-pvtz-jkfit.gbs 
    atoms 2-3, 6, 11-13     entry C          line   152 file /home/r08543048/miniconda3/share/psi4/basis/jun-cc-pvtz-jkfit.gbs 
    atoms 4                 entry O          line   272 file /home/r08543048/miniconda3/share/psi4/basis/jun-cc-pvtz-jkfit.gbs 

  ==> Pre-Iterations <==

   -------------------------------------------------------
    Irrep   Nso     Nmo     Nalpha   Nbeta   Ndocc  Nsocc
   -------------------------------------------------------
     A        469     469       0       0       0       0
   -------------------------------------------------------
    Total     469     469      29      29      29       0
   -------------------------------------------------------

  ==> Integral Setup <==

  ==> DiskDFJK: Density-Fitted J/K Matrices <==

    J tasked:                  Yes
    K tasked:                  Yes
    wK tasked:                  No
    OpenMP threads:              1
    Integrals threads:           1
    Memory [MiB]:            15735
    Algorithm:                Core
    Integral Cache:           SAVE
    Schwarz Cutoff:          1E-12
    Fitting Condition:       1E-10

   => Auxiliary Basis Set <=

  Basis Set: (JUN-CC-PVTZ AUX)
    Blend: JUN-CC-PVTZ-JKFIT
    Number of shells: 343
    Number of basis function: 1085
    Number of Cartesian functions: 1302
    Spherical Harmonics?: true
    Max angular momentum: 4

  Minimum eigenvalue in the overlap matrix is 5.7287240496E-05.
  Using Symmetric Orthogonalization.

  SCF Guess: Superposition of Atomic Densities via on-the-fly atomic UHF.

  ==> Iterations <==

                           Total Energy        Delta E     RMS |[F,P]|

   @DF-RHF iter SAD:  -309.05541309969232   -3.09055e+02   0.00000e+00 
   @DF-RHF iter   1:  -310.00538115235804   -9.49968e-01   1.60259e-03 DIIS
   @DF-RHF iter   2:  -310.24971455189007   -2.44333e-01   9.03473e-04 DIIS
   @DF-RHF iter   3:  -310.32359526973460   -7.38807e-02   1.87102e-04 DIIS
   @DF-RHF iter   4:  -310.32832976809465   -4.73450e-03   8.82584e-05 DIIS
   @DF-RHF iter   5:  -310.32929696972565   -9.67202e-04   1.32186e-05 DIIS
   @DF-RHF iter   6:  -310.32934610047050   -4.91307e-05   4.95279e-06 DIIS
   @DF-RHF iter   7:  -310.32935237513533   -6.27466e-06   2.09641e-06 DIIS
   @DF-RHF iter   8:  -310.32935362887667   -1.25374e-06   7.96558e-07 DIIS
   @DF-RHF iter   9:  -310.32935384464253   -2.15766e-07   1.75838e-07 DIIS
   @DF-RHF iter  10:  -310.32935385582670   -1.11842e-08   4.66404e-08 DIIS
   @DF-RHF iter  11:  -310.32935385644964   -6.22947e-10   1.66873e-08 DIIS
   @DF-RHF iter  12:  -310.32935385656072   -1.11072e-10   7.90103e-09 DIIS
  Energy and wave function converged.


  ==> Post-Iterations <==

    Orbital Energies [Eh]
    ---------------------

    Doubly Occupied:                                                      

       1A    -20.557619     2A    -11.333261     3A    -11.245169  
       4A    -11.220704     5A    -11.213061     6A    -11.210130  
       7A    -11.209877     8A     -1.389191     9A     -1.064814  
      10A     -1.054391    11A     -0.927331    12A     -0.912731  
      13A     -0.800640    14A     -0.774587    15A     -0.681581  
      16A     -0.645545    17A     -0.628577    18A     -0.616120  
      19A     -0.599573    20A     -0.551689    21A     -0.542130  
      22A     -0.538848    23A     -0.522798    24A     -0.520558  
      25A     -0.494125    26A     -0.476240    27A     -0.475752  
      28A     -0.465143    29A     -0.423204  

    Virtual:                                                              

      30A      0.045095    31A      0.050405    32A      0.058038  
      33A      0.060917    34A      0.069580    35A      0.072965  
      36A      0.085969    37A      0.092546    38A      0.094183  
      39A      0.108944    40A      0.111770    41A      0.117658  
      42A      0.118686    43A      0.121943    44A      0.130009  
      45A      0.136803    46A      0.147758    47A      0.150732  
      48A      0.156253    49A      0.160969    50A      0.169132  
      51A      0.184867    52A      0.200174    53A      0.211158  
      54A      0.219423    55A      0.230584    56A      0.251256  
      57A      0.254470    58A      0.261690    59A      0.262552  
      60A      0.274435    61A      0.278594    62A      0.281686  
      63A      0.291870    64A      0.303245    65A      0.307099  
      66A      0.316091    67A      0.318480    68A      0.328948  
      69A      0.330637    70A      0.331275    71A      0.333280  
      72A      0.343102    73A      0.343807    74A      0.352337  
      75A      0.354977    76A      0.364905    77A      0.373250  
      78A      0.379455    79A      0.386772    80A      0.392709  
      81A      0.398146    82A      0.405730    83A      0.413066  
      84A      0.424051    85A      0.437386    86A      0.442934  
      87A      0.448298    88A      0.453056    89A      0.468289  
      90A      0.476763    91A      0.483609    92A      0.493245  
      93A      0.496509    94A      0.511338    95A      0.525692  
      96A      0.529478    97A      0.533662    98A      0.535850  
      99A      0.545679   100A      0.558949   101A      0.565603  
     102A      0.582668   103A      0.590369   104A      0.595565  
     105A      0.608529   106A      0.619611   107A      0.642071  
     108A      0.656117   109A      0.662714   110A      0.670538  
     111A      0.680613   112A      0.691363   113A      0.704409  
     114A      0.711210   115A      0.725161   116A      0.728722  
     117A      0.748626   118A      0.757265   119A      0.759016  
     120A      0.766101   121A      0.773469   122A      0.792719  
     123A      0.795025   124A      0.802832   125A      0.808194  
     126A      0.813617   127A      0.825924   128A      0.833876  
     129A      0.840928   130A      0.853664   131A      0.856893  
     132A      0.861311   133A      0.874112   134A      0.880341  
     135A      0.894617   136A      0.905317   137A      0.907638  
     138A      0.915008   139A      0.925430   140A      0.927045  
     141A      0.952120   142A      0.972301   143A      0.982409  
     144A      0.988983   145A      0.999819   146A      1.009650  
     147A      1.029912   148A      1.042679   149A      1.063184  
     150A      1.070336   151A      1.083186   152A      1.110132  
     153A      1.116694   154A      1.117431   155A      1.134115  
     156A      1.154518   157A      1.177741   158A      1.184304  
     159A      1.215696   160A      1.225631   161A      1.231209  
     162A      1.247438   163A      1.270872   164A      1.285972  
     165A      1.295822   166A      1.318752   167A      1.321745  
     168A      1.334838   169A      1.350088   170A      1.362369  
     171A      1.367425   172A      1.371174   173A      1.385482  
     174A      1.398533   175A      1.408974   176A      1.424580  
     177A      1.431206   178A      1.437848   179A      1.454005  
     180A      1.457772   181A      1.463034   182A      1.481485  
     183A      1.485680   184A      1.498984   185A      1.510732  
     186A      1.524253   187A      1.532374   188A      1.538487  
     189A      1.556613   190A      1.573312   191A      1.577702  
     192A      1.584646   193A      1.597276   194A      1.605156  
     195A      1.614797   196A      1.623625   197A      1.632822  
     198A      1.639098   199A      1.656807   200A      1.670203  
     201A      1.682241   202A      1.692390   203A      1.709532  
     204A      1.714828   205A      1.720691   206A      1.739270  
     207A      1.762063   208A      1.775263   209A      1.786052  
     210A      1.815582   211A      1.825613   212A      1.837149  
     213A      1.849785   214A      1.867755   215A      1.883563  
     216A      1.897842   217A      1.923827   218A      1.946419  
     219A      1.952987   220A      1.965962   221A      1.974735  
     222A      1.982793   223A      1.991016   224A      2.083138  
     225A      2.148658   226A      2.309790   227A      2.399312  
     228A      2.416949   229A      2.461927   230A      2.560674  
     231A      2.690897   232A      2.708084   233A      2.731391  
     234A      2.756270   235A      2.763403   236A      2.774628  
     237A      2.813627   238A      2.831546   239A      2.843117  
     240A      2.861922   241A      2.876802   242A      2.902175  
     243A      2.911237   244A      2.915828   245A      2.932754  
     246A      2.938011   247A      2.951323   248A      2.971137  
     249A      2.976113   250A      2.986486   251A      2.992188  
     252A      3.026803   253A      3.043993   254A      3.059451  
     255A      3.077760   256A      3.097740   257A      3.101028  
     258A      3.113621   259A      3.130150   260A      3.137939  
     261A      3.152262   262A      3.171085   263A      3.189981  
     264A      3.198351   265A      3.222916   266A      3.248024  
     267A      3.261793   268A      3.273968   269A      3.294236  
     270A      3.297867   271A      3.315592   272A      3.326146  
     273A      3.337632   274A      3.342430   275A      3.350039  
     276A      3.372788   277A      3.377784   278A      3.385836  
     279A      3.396549   280A      3.404030   281A      3.407508  
     282A      3.414454   283A      3.427961   284A      3.437816  
     285A      3.468825   286A      3.476535   287A      3.481974  
     288A      3.490213   289A      3.495051   290A      3.499408  
     291A      3.514639   292A      3.517996   293A      3.529481  
     294A      3.538124   295A      3.545840   296A      3.550918  
     297A      3.559951   298A      3.569789   299A      3.586566  
     300A      3.603575   301A      3.620275   302A      3.640146  
     303A      3.651028   304A      3.678324   305A      3.682691  
     306A      3.700668   307A      3.708950   308A      3.727341  
     309A      3.733069   310A      3.742214   311A      3.774811  
     312A      3.777746   313A      3.801732   314A      3.821391  
     315A      3.825590   316A      3.835685   317A      3.842046  
     318A      3.855372   319A      3.869220   320A      3.878224  
     321A      3.887051   322A      3.903142   323A      3.927751  
     324A      3.933500   325A      3.944736   326A      3.960371  
     327A      3.975837   328A      3.985325   329A      3.990689  
     330A      4.024280   331A      4.027232   332A      4.098861  
     333A      4.116229   334A      4.118983   335A      4.135025  
     336A      4.143446   337A      4.181594   338A      4.203759  
     339A      4.209799   340A      4.226057   341A      4.236541  
     342A      4.241184   343A      4.248015   344A      4.266772  
     345A      4.299450   346A      4.311975   347A      4.319981  
     348A      4.329421   349A      4.333321   350A      4.342648  
     351A      4.353284   352A      4.370705   353A      4.377748  
     354A      4.380165   355A      4.382310   356A      4.420123  
     357A      4.436549   358A      4.441250   359A      4.449408  
     360A      4.458805   361A      4.489560   362A      4.498987  
     363A      4.502574   364A      4.510336   365A      4.519415  
     366A      4.542327   367A      4.551152   368A      4.560179  
     369A      4.575056   370A      4.581483   371A      4.599364  
     372A      4.613860   373A      4.641360   374A      4.658314  
     375A      4.666895   376A      4.681195   377A      4.696370  
     378A      4.705850   379A      4.720879   380A      4.743414  
     381A      4.767751   382A      4.803717   383A      4.814855  
     384A      4.837020   385A      4.847930   386A      4.867370  
     387A      4.885039   388A      4.914771   389A      4.936966  
     390A      4.963991   391A      5.000108   392A      5.001591  
     393A      5.018348   394A      5.033555   395A      5.040130  
     396A      5.078079   397A      5.133121   398A      5.164445  
     399A      5.176139   400A      5.202077   401A      5.247350  
     402A      5.255230   403A      5.279168   404A      5.280354  
     405A      5.283990   406A      5.291074   407A      5.312439  
     408A      5.317534   409A      5.335545   410A      5.345724  
     411A      5.368970   412A      5.399139   413A      5.428861  
     414A      5.435823   415A      5.473085   416A      5.480319  
     417A      5.509730   418A      5.517443   419A      5.581774  
     420A      5.599877   421A      5.627547   422A      5.672121  
     423A      5.690452   424A      5.715399   425A      5.724185  
     426A      5.746500   427A      5.749789   428A      5.759086  
     429A      5.765479   430A      5.775954   431A      5.791056  
     432A      5.810744   433A      5.818955   434A      5.831249  
     435A      5.851574   436A      5.908372   437A      5.916817  
     438A      5.933953   439A      5.936330   440A      5.958635  
     441A      5.977687   442A      6.005499   443A      6.109848  
     444A      6.131044   445A      6.189352   446A      6.319838  
     447A      6.466755   448A      6.495364   449A      6.516865  
     450A      6.528537   451A      6.532465   452A      6.556782  
     453A      6.565455   454A      6.630088   455A      6.800020  
     456A      6.963534   457A      7.241919   458A      7.290714  
     459A      7.308481   460A      7.443949   461A      7.624203  
     462A      7.720846   463A     12.472322   464A     13.881152  
     465A     14.000862   466A     14.314163   467A     14.466865  
     468A     14.688141   469A     14.773394  

    Final Occupation by Irrep:
              A 
    DOCC [    29 ]

  @DF-RHF Final Energy:  -310.32935385656072

   => Energetics <=

    Nuclear Repulsion Energy =            310.9848407383539666
    One-Electron Energy =               -1036.4376127744567384
    Two-Electron Energy =                 415.1234181795420000
    Total Energy =                       -310.3293538565607150

Computation Completed


Properties will be evaluated at   0.000000,   0.000000,   0.000000 [a0]

Properties computed using the SCF density matrix

  Nuclear Dipole Moment: [e a0]
     X:    -6.2886      Y:     4.8604      Z:     3.0526

  Electronic Dipole Moment: [e a0]
     X:     6.3541      Y:    -4.4241      Z:    -2.0235

  Dipole Moment: [e a0]
     X:     0.0656      Y:     0.4363      Z:     1.0291     Total:     1.1197

  Dipole Moment: [D]
     X:     0.1666      Y:     1.1089      Z:     2.6158     Total:     2.8460


*** tstop() called on r282 at Fri Sep 10 12:47:43 2021
Module time:
	user time   =      54.02 seconds =       0.90 minutes
	system time =       1.21 seconds =       0.02 minutes
	total time  =         55 seconds =       0.92 minutes
Total time:
	user time   =      54.02 seconds =       0.90 minutes
	system time =       1.21 seconds =       0.02 minutes
	total time  =         55 seconds =       0.92 minutes

  //>>>>>>>>>>>>>>>>>>>>>>>>>>>>>>>>>>>//
  //            Monomer A HF           //
  //<<<<<<<<<<<<<<<<<<<<<<<<<<<<<<<<<<<//


*** tstart() called on r282
*** at Fri Sep 10 12:47:43 2021

   => Loading Basis Set <=

    Name: JUN-CC-PVTZ
    Role: ORBITAL
    Keyword: BASIS
    atoms 1, 5, 7-10, 14-21 entry H          line    36 file /home/r08543048/miniconda3/share/psi4/basis/jun-cc-pvtz.gbs 
    atoms 2-3, 6, 11-13     entry C          line   217 file /home/r08543048/miniconda3/share/psi4/basis/jun-cc-pvtz.gbs 
    atoms 4                 entry O          line   305 file /home/r08543048/miniconda3/share/psi4/basis/jun-cc-pvtz.gbs 


         ---------------------------------------------------------
                                   SCF
               by Justin Turney, Rob Parrish, Andy Simmonett
                          and Daniel G. A. Smith
                              RHF Reference
                        1 Threads,  20980 MiB Core
         ---------------------------------------------------------

  ==> Geometry <==

    Molecular point group: c1
    Full point group: C1

    Geometry (in Angstrom), charge = 0, multiplicity = 1:

       Center              X                  Y                   Z               Mass       
    ------------   -----------------  -----------------  -----------------  -----------------
         H            1.470970693912    -1.766039305219     1.023266469613     1.007825032230
         C            1.627646693912     0.435224694781     0.842296469613    12.000000000000
         C            1.505959693912    -0.950715305219     0.276938469613    12.000000000000
         O            1.446379693912    -1.205718305219    -0.910542530387    15.994914619570
         H            2.515936693912     0.439603694781     1.482351469613     1.007825032230
         C            1.687627693912     1.523947694781    -0.213693530387    12.000000000000
         H            2.536715693912     1.369504694781    -0.876813530387     1.007825032230
         H            0.788074693912     1.517859694781    -0.826102530387     1.007825032230
         H            1.782686693912     2.503730694781     0.250769469613     1.007825032230
         H            0.782543693912     0.575082694781     1.524475469613     1.007825032230
      Gh(C)          -2.192845306088     1.342300694781     0.020931469613    12.000000000000
      Gh(C)          -1.974495306088    -0.058207305219    -0.538574530387    12.000000000000
      Gh(C)          -2.017789306088    -1.121382305219     0.551904469613    12.000000000000
      Gh(H)          -3.160427306088     1.414299694781     0.519847469613     1.007825032230
      Gh(H)          -1.424861306088     1.592060694781     0.755429469613     1.007825032230
      Gh(H)          -2.162340306088     2.099131694781    -0.762738530387     1.007825032230
      Gh(H)          -1.016106306088    -0.107452305219    -1.058805530387     1.007825032230
      Gh(H)          -2.740219306088    -0.275247305219    -1.285953530387     1.007825032230
      Gh(H)          -1.828935306088    -2.116558305219     0.150353469613     1.007825032230
      Gh(H)          -1.268155306088    -0.922275305219     1.320500469613     1.007825032230
      Gh(H)          -2.991304306088    -1.132975305219     1.044319469613     1.007825032230

  Running in c1 symmetry.

  Rotational constants: A =      0.09612  B =      0.04395  C =      0.03586 [cm^-1]
  Rotational constants: A =   2881.75294  B =   1317.60563  C =   1075.05274 [MHz]
  Nuclear repulsion =  118.652282374193575

  Charge       = 0
  Multiplicity = 1
  Electrons    = 32
  Nalpha       = 16
  Nbeta        = 16

  ==> Algorithm <==

  SCF Algorithm Type is DF.
  DIIS enabled.
  MOM disabled.
  Fractional occupation disabled.
  Guess Type is SAD.
  Energy threshold   = 1.00e-08
  Density threshold  = 1.00e-08
  Integral threshold = 0.00e+00

  ==> Primary Basis <==

  Basis Set: JUN-CC-PVTZ
    Blend: JUN-CC-PVTZ
    Number of shells: 175
    Number of basis function: 469
    Number of Cartesian functions: 525
    Spherical Harmonics?: true
    Max angular momentum: 3

   => Loading Basis Set <=

    Name: (JUN-CC-PVTZ AUX)
    Role: JKFIT
    Keyword: DF_BASIS_SCF
    atoms 1, 5, 7-10, 14-21 entry H          line    70 file /home/r08543048/miniconda3/share/psi4/basis/jun-cc-pvtz-jkfit.gbs 
    atoms 2-3, 6, 11-13     entry C          line   152 file /home/r08543048/miniconda3/share/psi4/basis/jun-cc-pvtz-jkfit.gbs 
    atoms 4                 entry O          line   272 file /home/r08543048/miniconda3/share/psi4/basis/jun-cc-pvtz-jkfit.gbs 

  ==> Pre-Iterations <==

   -------------------------------------------------------
    Irrep   Nso     Nmo     Nalpha   Nbeta   Ndocc  Nsocc
   -------------------------------------------------------
     A        469     469       0       0       0       0
   -------------------------------------------------------
    Total     469     469      16      16      16       0
   -------------------------------------------------------

  ==> Integral Setup <==

  ==> DiskDFJK: Density-Fitted J/K Matrices <==

    J tasked:                  Yes
    K tasked:                  Yes
    wK tasked:                  No
    OpenMP threads:              1
    Integrals threads:           1
    Memory [MiB]:            15735
    Algorithm:                Core
    Integral Cache:           LOAD
    Schwarz Cutoff:          1E-12
    Fitting Condition:       1E-10

   => Auxiliary Basis Set <=

  Basis Set: (JUN-CC-PVTZ AUX)
    Blend: JUN-CC-PVTZ-JKFIT
    Number of shells: 343
    Number of basis function: 1085
    Number of Cartesian functions: 1302
    Spherical Harmonics?: true
    Max angular momentum: 4

  Minimum eigenvalue in the overlap matrix is 5.7287240496E-05.
  Using Symmetric Orthogonalization.

  SCF Guess: Superposition of Atomic Densities via on-the-fly atomic UHF.

  ==> Iterations <==

                           Total Energy        Delta E     RMS |[F,P]|

   @DF-RHF iter SAD:  -191.17657966900390   -1.91177e+02   0.00000e+00 
   @DF-RHF iter   1:  -191.85948234000304   -6.82903e-01   1.18531e-03 DIIS
   @DF-RHF iter   2:  -191.97481881104034   -1.15336e-01   7.59697e-04 DIIS
   @DF-RHF iter   3:  -192.02102994476724   -4.62111e-02   1.40309e-04 DIIS
   @DF-RHF iter   4:  -192.02380827669663   -2.77833e-03   5.97966e-05 DIIS
   @DF-RHF iter   5:  -192.02435529975443   -5.47023e-04   1.08165e-05 DIIS
   @DF-RHF iter   6:  -192.02439333452875   -3.80348e-05   4.11102e-06 DIIS
   @DF-RHF iter   7:  -192.02439851653375   -5.18200e-06   1.77493e-06 DIIS
   @DF-RHF iter   8:  -192.02439938900577   -8.72472e-07   5.58300e-07 DIIS
   @DF-RHF iter   9:  -192.02439949455149   -1.05546e-07   1.12589e-07 DIIS
   @DF-RHF iter  10:  -192.02439949867005   -4.11856e-09   2.34891e-08 DIIS
   @DF-RHF iter  11:  -192.02439949881040   -1.40346e-10   4.87214e-09 DIIS
  Energy and wave function converged.


  ==> Post-Iterations <==

    Orbital Energies [Eh]
    ---------------------

    Doubly Occupied:                                                      

       1A    -20.557997     2A    -11.333067     3A    -11.245501  
       4A    -11.221188     5A     -1.388758     6A     -1.064253  
       7A     -0.912940     8A     -0.774437     9A     -0.681329  
      10A     -0.635931    11A     -0.627716    12A     -0.542150  
      13A     -0.527701    14A     -0.521110    15A     -0.491154  
      16A     -0.423205  

    Virtual:                                                              

      17A      0.031502    18A      0.044825    19A      0.049274  
      20A      0.057211    21A      0.065802    22A      0.070419  
      23A      0.082491    24A      0.089226    25A      0.089672  
      26A      0.103422    27A      0.107458    28A      0.107897  
      29A      0.116805    30A      0.119370    31A      0.122965  
      32A      0.129661    33A      0.138692    34A      0.144035  
      35A      0.151380    36A      0.157159    37A      0.161311  
      38A      0.168655    39A      0.169839    40A      0.197188  
      41A      0.201218    42A      0.217442    43A      0.227523  
      44A      0.243767    45A      0.258255    46A      0.265450  
      47A      0.272014    48A      0.272841    49A      0.280702  
      50A      0.286311    51A      0.290082    52A      0.294289  
      53A      0.306661    54A      0.311568    55A      0.320881  
      56A      0.323851    57A      0.327061    58A      0.337861  
      59A      0.346472    60A      0.349684    61A      0.355873  
      62A      0.361629    63A      0.372978    64A      0.379270  
      65A      0.381674    66A      0.389455    67A      0.399500  
      68A      0.404481    69A      0.413773    70A      0.427663  
      71A      0.432242    72A      0.441828    73A      0.446009  
      74A      0.450623    75A      0.461156    76A      0.478080  
      77A      0.483826    78A      0.494187    79A      0.498493  
      80A      0.502397    81A      0.510533    82A      0.520896  
      83A      0.540207    84A      0.544943    85A      0.552458  
      86A      0.554534    87A      0.564624    88A      0.575377  
      89A      0.579086    90A      0.588438    91A      0.590215  
      92A      0.607270    93A      0.609772    94A      0.623534  
      95A      0.627804    96A      0.634494    97A      0.653696  
      98A      0.661928    99A      0.672690   100A      0.679929  
     101A      0.683867   102A      0.698121   103A      0.705696  
     104A      0.708372   105A      0.726711   106A      0.752395  
     107A      0.755646   108A      0.763050   109A      0.779432  
     110A      0.784937   111A      0.804308   112A      0.806711  
     113A      0.820194   114A      0.841719   115A      0.847109  
     116A      0.858464   117A      0.871521   118A      0.882056  
     119A      0.898005   120A      0.917320   121A      0.927932  
     122A      0.959564   123A      0.984719   124A      0.991000  
     125A      1.003584   126A      1.014842   127A      1.044396  
     128A      1.056510   129A      1.074797   130A      1.084546  
     131A      1.091037   132A      1.096925   133A      1.118998  
     134A      1.121358   135A      1.134311   136A      1.147628  
     137A      1.159553   138A      1.164707   139A      1.182147  
     140A      1.199213   141A      1.203230   142A      1.215960  
     143A      1.220063   144A      1.242576   145A      1.257030  
     146A      1.262354   147A      1.278676   148A      1.279679  
     149A      1.286831   150A      1.298880   151A      1.303221  
     152A      1.321074   153A      1.328528   154A      1.339367  
     155A      1.343205   156A      1.362970   157A      1.371690  
     158A      1.376859   159A      1.390383   160A      1.416574  
     161A      1.418395   162A      1.425124   163A      1.433624  
     164A      1.439174   165A      1.441523   166A      1.459771  
     167A      1.463653   168A      1.474591   169A      1.495801  
     170A      1.501963   171A      1.508125   172A      1.514848  
     173A      1.525330   174A      1.534499   175A      1.561800  
     176A      1.564068   177A      1.581695   178A      1.593999  
     179A      1.601059   180A      1.609820   181A      1.627204  
     182A      1.631768   183A      1.634547   184A      1.639953  
     185A      1.656351   186A      1.680855   187A      1.693099  
     188A      1.697037   189A      1.719359   190A      1.725178  
     191A      1.743270   192A      1.753213   193A      1.769304  
     194A      1.774675   195A      1.797904   196A      1.805336  
     197A      1.842586   198A      1.860101   199A      1.880083  
     200A      1.894862   201A      1.903195   202A      1.918312  
     203A      1.935562   204A      1.949838   205A      1.968788  
     206A      2.022705   207A      2.036015   208A      2.093967  
     209A      2.107408   210A      2.141454   211A      2.177878  
     212A      2.190125   213A      2.199503   214A      2.306357  
     215A      2.340671   216A      2.382099   217A      2.397543  
     218A      2.404056   219A      2.415577   220A      2.439552  
     221A      2.470782   222A      2.476721   223A      2.496894  
     224A      2.566195   225A      2.580168   226A      2.602102  
     227A      2.605138   228A      2.718591   229A      2.753138  
     230A      2.790146   231A      2.823477   232A      2.868687  
     233A      2.898340   234A      2.935710   235A      2.944663  
     236A      2.968973   237A      2.976781   238A      3.003134  
     239A      3.046655   240A      3.065004   241A      3.105822  
     242A      3.131161   243A      3.152129   244A      3.188576  
     245A      3.247075   246A      3.290195   247A      3.310319  
     248A      3.320368   249A      3.346660   250A      3.383100  
     251A      3.390636   252A      3.399864   253A      3.409832  
     254A      3.447209   255A      3.456745   256A      3.483220  
     257A      3.495089   258A      3.505944   259A      3.512161  
     260A      3.528738   261A      3.537342   262A      3.551783  
     263A      3.565122   264A      3.573270   265A      3.579971  
     266A      3.588422   267A      3.595189   268A      3.606652  
     269A      3.618421   270A      3.622241   271A      3.647720  
     272A      3.665553   273A      3.676968   274A      3.698695  
     275A      3.713882   276A      3.722384   277A      3.733515  
     278A      3.749615   279A      3.758160   280A      3.782966  
     281A      3.795791   282A      3.804762   283A      3.830908  
     284A      3.839613   285A      3.847483   286A      3.855944  
     287A      3.871353   288A      3.883080   289A      3.897657  
     290A      3.900654   291A      3.910124   292A      3.918926  
     293A      3.931931   294A      3.944732   295A      3.955248  
     296A      3.983479   297A      4.014027   298A      4.019426  
     299A      4.071935   300A      4.081332   301A      4.106519  
     302A      4.120743   303A      4.130284   304A      4.137354  
     305A      4.144687   306A      4.164985   307A      4.173675  
     308A      4.207100   309A      4.218184   310A      4.222116  
     311A      4.232699   312A      4.248844   313A      4.302900  
     314A      4.317105   315A      4.323052   316A      4.332172  
     317A      4.350613   318A      4.362099   319A      4.372431  
     320A      4.390187   321A      4.390971   322A      4.414032  
     323A      4.437004   324A      4.463479   325A      4.468362  
     326A      4.482607   327A      4.484342   328A      4.495013  
     329A      4.503897   330A      4.509811   331A      4.520251  
     332A      4.531162   333A      4.539050   334A      4.558899  
     335A      4.569748   336A      4.590092   337A      4.618688  
     338A      4.625498   339A      4.637359   340A      4.642047  
     341A      4.658117   342A      4.667361   343A      4.680092  
     344A      4.691481   345A      4.702154   346A      4.706931  
     347A      4.723123   348A      4.732900   349A      4.751650  
     350A      4.781091   351A      4.789350   352A      4.805414  
     353A      4.816662   354A      4.818961   355A      4.834432  
     356A      4.847834   357A      4.850621   358A      4.863901  
     359A      4.894846   360A      4.897923   361A      4.914122  
     362A      4.915004   363A      4.927679   364A      4.941252  
     365A      4.957517   366A      4.963287   367A      4.969943  
     368A      4.977281   369A      4.988046   370A      4.997832  
     371A      5.013502   372A      5.028961   373A      5.041086  
     374A      5.046792   375A      5.065259   376A      5.088622  
     377A      5.093736   378A      5.131681   379A      5.144235  
     380A      5.159377   381A      5.171768   382A      5.208847  
     383A      5.226911   384A      5.251832   385A      5.283965  
     386A      5.290039   387A      5.299424   388A      5.318407  
     389A      5.340062   390A      5.369878   391A      5.383430  
     392A      5.415676   393A      5.432438   394A      5.464960  
     395A      5.485379   396A      5.518496   397A      5.594590  
     398A      5.608399   399A      5.620867   400A      5.628526  
     401A      5.635609   402A      5.641356   403A      5.674811  
     404A      5.698613   405A      5.716959   406A      5.746150  
     407A      5.762336   408A      5.820908   409A      5.831947  
     410A      5.848054   411A      5.901733   412A      5.913855  
     413A      5.931235   414A      5.957542   415A      5.982156  
     416A      6.013525   417A      6.052863   418A      6.129530  
     419A      6.184745   420A      6.191054   421A      6.201691  
     422A      6.254547   423A      6.317903   424A      6.346286  
     425A      6.359073   426A      6.382534   427A      6.423840  
     428A      6.443270   429A      6.490502   430A      6.498433  
     431A      6.504460   432A      6.528422   433A      6.574503  
     434A      6.613192   435A      6.755751   436A      6.799046  
     437A      6.899223   438A      6.961492   439A      6.999139  
     440A      7.242725   441A      7.289596   442A      7.300189  
     443A      7.308569   444A      7.441883   445A      7.491398  
     446A      7.558264   447A      7.591361   448A      7.625593  
     449A      7.641830   450A      7.690692   451A      7.701798  
     452A      7.723230   453A      7.809218   454A      7.820842  
     455A      7.866268   456A      7.905857   457A      8.054928  
     458A      8.223888   459A      8.502221   460A      9.574260  
     461A      9.897538   462A      9.931113   463A     12.489651  
     464A     14.001273   465A     14.321535   466A     14.741250  
     467A     44.365525   468A     45.370919   469A     45.813352  

    Final Occupation by Irrep:
              A 
    DOCC [    16 ]

  @DF-RHF Final Energy:  -192.02439949881040

   => Energetics <=

    Nuclear Repulsion Energy =            118.6522823741935753
    One-Electron Energy =                -495.4564883889862585
    Two-Electron Energy =                 184.7798065159822727
    Total Energy =                       -192.0243994988103964

Computation Completed


Properties will be evaluated at   0.000000,   0.000000,   0.000000 [a0]

Properties computed using the SCF density matrix

  Nuclear Dipole Moment: [e a0]
     X:    95.1957      Y:     1.9743      Z:     1.3736

  Electronic Dipole Moment: [e a0]
     X:   -95.1199      Y:    -1.4916      Z:    -0.2271

  Dipole Moment: [e a0]
     X:     0.0757      Y:     0.4826      Z:     1.1464     Total:     1.2462

  Dipole Moment: [D]
     X:     0.1924      Y:     1.2268      Z:     2.9139     Total:     3.1675


*** tstop() called on r282 at Fri Sep 10 12:48:11 2021
Module time:
	user time   =      27.38 seconds =       0.46 minutes
	system time =       0.58 seconds =       0.01 minutes
	total time  =         28 seconds =       0.47 minutes
Total time:
	user time   =      81.40 seconds =       1.36 minutes
	system time =       1.79 seconds =       0.03 minutes
	total time  =         83 seconds =       1.38 minutes

  //>>>>>>>>>>>>>>>>>>>>>>>>>>>>>>>>>>>//
  //            Monomer B HF           //
  //<<<<<<<<<<<<<<<<<<<<<<<<<<<<<<<<<<<//


*** tstart() called on r282
*** at Fri Sep 10 12:48:11 2021

   => Loading Basis Set <=

    Name: JUN-CC-PVTZ
    Role: ORBITAL
    Keyword: BASIS
    atoms 1, 5, 7-10, 14-21 entry H          line    36 file /home/r08543048/miniconda3/share/psi4/basis/jun-cc-pvtz.gbs 
    atoms 2-3, 6, 11-13     entry C          line   217 file /home/r08543048/miniconda3/share/psi4/basis/jun-cc-pvtz.gbs 
    atoms 4                 entry O          line   305 file /home/r08543048/miniconda3/share/psi4/basis/jun-cc-pvtz.gbs 


         ---------------------------------------------------------
                                   SCF
               by Justin Turney, Rob Parrish, Andy Simmonett
                          and Daniel G. A. Smith
                              RHF Reference
                        1 Threads,  20980 MiB Core
         ---------------------------------------------------------

  ==> Geometry <==

    Molecular point group: c1
    Full point group: C1

    Geometry (in Angstrom), charge = 0, multiplicity = 1:

       Center              X                  Y                   Z               Mass       
    ------------   -----------------  -----------------  -----------------  -----------------
      Gh(H)           1.470970693912    -1.766039305219     1.023266469613     1.007825032230
      Gh(C)           1.627646693912     0.435224694781     0.842296469613    12.000000000000
      Gh(C)           1.505959693912    -0.950715305219     0.276938469613    12.000000000000
      Gh(O)           1.446379693912    -1.205718305219    -0.910542530387    15.994914619570
      Gh(H)           2.515936693912     0.439603694781     1.482351469613     1.007825032230
      Gh(C)           1.687627693912     1.523947694781    -0.213693530387    12.000000000000
      Gh(H)           2.536715693912     1.369504694781    -0.876813530387     1.007825032230
      Gh(H)           0.788074693912     1.517859694781    -0.826102530387     1.007825032230
      Gh(H)           1.782686693912     2.503730694781     0.250769469613     1.007825032230
      Gh(H)           0.782543693912     0.575082694781     1.524475469613     1.007825032230
         C           -2.192845306088     1.342300694781     0.020931469613    12.000000000000
         C           -1.974495306088    -0.058207305219    -0.538574530387    12.000000000000
         C           -2.017789306088    -1.121382305219     0.551904469613    12.000000000000
         H           -3.160427306088     1.414299694781     0.519847469613     1.007825032230
         H           -1.424861306088     1.592060694781     0.755429469613     1.007825032230
         H           -2.162340306088     2.099131694781    -0.762738530387     1.007825032230
         H           -1.016106306088    -0.107452305219    -1.058805530387     1.007825032230
         H           -2.740219306088    -0.275247305219    -1.285953530387     1.007825032230
         H           -1.828935306088    -2.116558305219     0.150353469613     1.007825032230
         H           -1.268155306088    -0.922275305219     1.320500469613     1.007825032230
         H           -2.991304306088    -1.132975305219     1.044319469613     1.007825032230

  Running in c1 symmetry.

  Rotational constants: A =      0.09612  B =      0.04395  C =      0.03586 [cm^-1]
  Rotational constants: A =   2881.75294  B =   1317.60563  C =   1075.05274 [MHz]
  Nuclear repulsion =   82.806955095304417

  Charge       = 0
  Multiplicity = 1
  Electrons    = 26
  Nalpha       = 13
  Nbeta        = 13

  ==> Algorithm <==

  SCF Algorithm Type is DF.
  DIIS enabled.
  MOM disabled.
  Fractional occupation disabled.
  Guess Type is SAD.
  Energy threshold   = 1.00e-08
  Density threshold  = 1.00e-08
  Integral threshold = 0.00e+00

  ==> Primary Basis <==

  Basis Set: JUN-CC-PVTZ
    Blend: JUN-CC-PVTZ
    Number of shells: 175
    Number of basis function: 469
    Number of Cartesian functions: 525
    Spherical Harmonics?: true
    Max angular momentum: 3

   => Loading Basis Set <=

    Name: (JUN-CC-PVTZ AUX)
    Role: JKFIT
    Keyword: DF_BASIS_SCF
    atoms 1, 5, 7-10, 14-21 entry H          line    70 file /home/r08543048/miniconda3/share/psi4/basis/jun-cc-pvtz-jkfit.gbs 
    atoms 2-3, 6, 11-13     entry C          line   152 file /home/r08543048/miniconda3/share/psi4/basis/jun-cc-pvtz-jkfit.gbs 
    atoms 4                 entry O          line   272 file /home/r08543048/miniconda3/share/psi4/basis/jun-cc-pvtz-jkfit.gbs 

  ==> Pre-Iterations <==

   -------------------------------------------------------
    Irrep   Nso     Nmo     Nalpha   Nbeta   Ndocc  Nsocc
   -------------------------------------------------------
     A        469     469       0       0       0       0
   -------------------------------------------------------
    Total     469     469      13      13      13       0
   -------------------------------------------------------

  ==> Integral Setup <==

  ==> DiskDFJK: Density-Fitted J/K Matrices <==

    J tasked:                  Yes
    K tasked:                  Yes
    wK tasked:                  No
    OpenMP threads:              1
    Integrals threads:           1
    Memory [MiB]:            15735
    Algorithm:                Core
    Integral Cache:           LOAD
    Schwarz Cutoff:          1E-12
    Fitting Condition:       1E-10

   => Auxiliary Basis Set <=

  Basis Set: (JUN-CC-PVTZ AUX)
    Blend: JUN-CC-PVTZ-JKFIT
    Number of shells: 343
    Number of basis function: 1085
    Number of Cartesian functions: 1302
    Spherical Harmonics?: true
    Max angular momentum: 4

  Minimum eigenvalue in the overlap matrix is 5.7287240496E-05.
  Using Symmetric Orthogonalization.

  SCF Guess: Superposition of Atomic Densities via on-the-fly atomic UHF.

  ==> Iterations <==

                           Total Energy        Delta E     RMS |[F,P]|

   @DF-RHF iter SAD:  -117.72471497444300   -1.17725e+02   0.00000e+00 
   @DF-RHF iter   1:  -118.14641170648920   -4.21697e-01   1.09864e-03 DIIS
   @DF-RHF iter   2:  -118.27574444712104   -1.29333e-01   5.19887e-04 DIIS
   @DF-RHF iter   3:  -118.30616317454952   -3.04187e-02   8.73298e-05 DIIS
   @DF-RHF iter   4:  -118.30801513789596   -1.85196e-03   1.71972e-05 DIIS
   @DF-RHF iter   5:  -118.30807331083859   -5.81729e-05   4.83737e-06 DIIS
   @DF-RHF iter   6:  -118.30807791158121   -4.60074e-06   8.68573e-07 DIIS
   @DF-RHF iter   7:  -118.30807808200271   -1.70422e-07   1.63533e-07 DIIS
   @DF-RHF iter   8:  -118.30807808944147   -7.43876e-09   2.85806e-08 DIIS
   @DF-RHF iter   9:  -118.30807808967376   -2.32291e-10   5.61858e-09 DIIS
  Energy and wave function converged.


  ==> Post-Iterations <==

    Orbital Energies [Eh]
    ---------------------

    Doubly Occupied:                                                      

       1A    -11.215641     2A    -11.207998     3A    -11.207821  
       4A     -1.053940     5A     -0.924748     6A     -0.800113  
       7A     -0.624268     8A     -0.598260     9A     -0.549805  
      10A     -0.529621    11A     -0.476230    12A     -0.474724  
      13A     -0.467731  

    Virtual:                                                              

      14A      0.033072    15A      0.047402    16A      0.052355  
      17A      0.057996    18A      0.068562    19A      0.072301  
      20A      0.085088    21A      0.087336    22A      0.089518  
      23A      0.105852    24A      0.109387    25A      0.116104  
      26A      0.117200    27A      0.119215    28A      0.121635  
      29A      0.131320    30A      0.145371    31A      0.150844  
      32A      0.153197    33A      0.156430    34A      0.161025  
      35A      0.174236    36A      0.193368    37A      0.198506  
      38A      0.206850    39A      0.224893    40A      0.227916  
      41A      0.236404    42A      0.249365    43A      0.268488  
      44A      0.276805    45A      0.282466    46A      0.286406  
      47A      0.295548    48A      0.302793    49A      0.308098  
      50A      0.317943    51A      0.322173    52A      0.327297  
      53A      0.330040    54A      0.339606    55A      0.345776  
      56A      0.348267    57A      0.356613    58A      0.359925  
      59A      0.367134    60A      0.375177    61A      0.379874  
      62A      0.385181    63A      0.385468    64A      0.393869  
      65A      0.401215    66A      0.412851    67A      0.418093  
      68A      0.426852    69A      0.443371    70A      0.448722  
      71A      0.459446    72A      0.464784    73A      0.476517  
      74A      0.483065    75A      0.490897    76A      0.500741  
      77A      0.505568    78A      0.524066    79A      0.530818  
      80A      0.537811    81A      0.544636    82A      0.549136  
      83A      0.557420    84A      0.563187    85A      0.572632  
      86A      0.588788    87A      0.593563    88A      0.594385  
      89A      0.605389    90A      0.618888    91A      0.624626  
      92A      0.636435    93A      0.644637    94A      0.654434  
      95A      0.675920    96A      0.683496    97A      0.688055  
      98A      0.693129    99A      0.709829   100A      0.733785  
     101A      0.741889   102A      0.763116   103A      0.770598  
     104A      0.776445   105A      0.782042   106A      0.793258  
     107A      0.803278   108A      0.817750   109A      0.822286  
     110A      0.824875   111A      0.834050   112A      0.868033  
     113A      0.875394   114A      0.889741   115A      0.897135  
     116A      0.901488   117A      0.906380   118A      0.911752  
     119A      0.944626   120A      0.957045   121A      0.972332  
     122A      0.982539   123A      0.985071   124A      1.001975  
     125A      1.014928   126A      1.031810   127A      1.050292  
     128A      1.062536   129A      1.080287   130A      1.097444  
     131A      1.104551   132A      1.115818   133A      1.136441  
     134A      1.145623   135A      1.168878   136A      1.176937  
     137A      1.181262   138A      1.190407   139A      1.200623  
     140A      1.218667   141A      1.241131   142A      1.249965  
     143A      1.267053   144A      1.277403   145A      1.289067  
     146A      1.302693   147A      1.308788   148A      1.318329  
     149A      1.324660   150A      1.341570   151A      1.351194  
     152A      1.355961   153A      1.361172   154A      1.375219  
     155A      1.382340   156A      1.396467   157A      1.406201  
     158A      1.419002   159A      1.429227   160A      1.454013  
     161A      1.457491   162A      1.461280   163A      1.473317  
     164A      1.485438   165A      1.497736   166A      1.503004  
     167A      1.527564   168A      1.540544   169A      1.547993  
     170A      1.559325   171A      1.565974   172A      1.572668  
     173A      1.584599   174A      1.588436   175A      1.601148  
     176A      1.617983   177A      1.624649   178A      1.637314  
     179A      1.639627   180A      1.657889   181A      1.665295  
     182A      1.668385   183A      1.689514   184A      1.692825  
     185A      1.701013   186A      1.709364   187A      1.729556  
     188A      1.752318   189A      1.765052   190A      1.796679  
     191A      1.810819   192A      1.840296   193A      1.846322  
     194A      1.861114   195A      1.867083   196A      1.893128  
     197A      1.926195   198A      1.931335   199A      1.942086  
     200A      1.957759   201A      1.965709   202A      1.977509  
     203A      1.997503   204A      2.001485   205A      2.090012  
     206A      2.097670   207A      2.109924   208A      2.143412  
     209A      2.193286   210A      2.200731   211A      2.281486  
     212A      2.363495   213A      2.418032   214A      2.430090  
     215A      2.464010   216A      2.532984   217A      2.599000  
     218A      2.631309   219A      2.648110   220A      2.750792  
     221A      2.761042   222A      2.773881   223A      2.811711  
     224A      2.817794   225A      2.830718   226A      2.848207  
     227A      2.883295   228A      2.900547   229A      2.912205  
     230A      2.934537   231A      2.945305   232A      2.973994  
     233A      2.995592   234A      3.014431   235A      3.037715  
     236A      3.052060   237A      3.098232   238A      3.123965  
     239A      3.138978   240A      3.171814   241A      3.178684  
     242A      3.204887   243A      3.210914   244A      3.235354  
     245A      3.266784   246A      3.291647   247A      3.320625  
     248A      3.327792   249A      3.337516   250A      3.374392  
     251A      3.380880   252A      3.390524   253A      3.422811  
     254A      3.447939   255A      3.469064   256A      3.485241  
     257A      3.489683   258A      3.502190   259A      3.508454  
     260A      3.519335   261A      3.531289   262A      3.538876  
     263A      3.541312   264A      3.565718   265A      3.572574  
     266A      3.590578   267A      3.601904   268A      3.623324  
     269A      3.646305   270A      3.649659   271A      3.661432  
     272A      3.675743   273A      3.677425   274A      3.719366  
     275A      3.721658   276A      3.731853   277A      3.763351  
     278A      3.782123   279A      3.802792   280A      3.809892  
     281A      3.815797   282A      3.824277   283A      3.835355  
     284A      3.844485   285A      3.851789   286A      3.871544  
     287A      3.893133   288A      3.909190   289A      3.915375  
     290A      3.921487   291A      3.935585   292A      3.942853  
     293A      3.949420   294A      3.972296   295A      3.979285  
     296A      4.001653   297A      4.033437   298A      4.039105  
     299A      4.064019   300A      4.105112   301A      4.115148  
     302A      4.125053   303A      4.142489   304A      4.196167  
     305A      4.204223   306A      4.221456   307A      4.227125  
     308A      4.243449   309A      4.255632   310A      4.262662  
     311A      4.287709   312A      4.298975   313A      4.311865  
     314A      4.322104   315A      4.340489   316A      4.362131  
     317A      4.377486   318A      4.378892   319A      4.397674  
     320A      4.427560   321A      4.435950   322A      4.451626  
     323A      4.457173   324A      4.475040   325A      4.488991  
     326A      4.490652   327A      4.504301   328A      4.512149  
     329A      4.523707   330A      4.534926   331A      4.544719  
     332A      4.548471   333A      4.563435   334A      4.574652  
     335A      4.580512   336A      4.584975   337A      4.607083  
     338A      4.617763   339A      4.635633   340A      4.659080  
     341A      4.675802   342A      4.687904   343A      4.690879  
     344A      4.704463   345A      4.708855   346A      4.716583  
     347A      4.732201   348A      4.763320   349A      4.782483  
     350A      4.794975   351A      4.810721   352A      4.826246  
     353A      4.832753   354A      4.853646   355A      4.857632  
     356A      4.861255   357A      4.865364   358A      4.877357  
     359A      4.897329   360A      4.901649   361A      4.927645  
     362A      4.935321   363A      4.950671   364A      4.973600  
     365A      4.978680   366A      4.990239   367A      4.993624  
     368A      5.011072   369A      5.014729   370A      5.030419  
     371A      5.044490   372A      5.075357   373A      5.104306  
     374A      5.135502   375A      5.143218   376A      5.150791  
     377A      5.185891   378A      5.206176   379A      5.210361  
     380A      5.264587   381A      5.278634   382A      5.281202  
     383A      5.287786   384A      5.302267   385A      5.330974  
     386A      5.354681   387A      5.361712   388A      5.403186  
     389A      5.431009   390A      5.455517   391A      5.482916  
     392A      5.511976   393A      5.567271   394A      5.584578  
     395A      5.602549   396A      5.618471   397A      5.659102  
     398A      5.725848   399A      5.733988   400A      5.753604  
     401A      5.768336   402A      5.777624   403A      5.795370  
     404A      5.800497   405A      5.815191   406A      5.827315  
     407A      5.865398   408A      5.877806   409A      5.926932  
     410A      5.933868   411A      5.961831   412A      5.994742  
     413A      6.021102   414A      6.077177   415A      6.107337  
     416A      6.121542   417A      6.158017   418A      6.236845  
     419A      6.342120   420A      6.369338   421A      6.393194  
     422A      6.436212   423A      6.455347   424A      6.472573  
     425A      6.506410   426A      6.508844   427A      6.533519  
     428A      6.540622   429A      6.559501   430A      6.613926  
     431A      6.623644   432A      6.651386   433A      6.873901  
     434A      6.895073   435A      6.966890   436A      7.024884  
     437A      7.322709   438A      7.351664   439A      7.549371  
     440A      7.561021   441A      7.697915   442A      7.724051  
     443A      7.793981   444A      7.884579   445A      7.901991  
     446A      8.029430   447A      8.130828   448A      8.255470  
     449A      8.471143   450A      8.555784   451A      9.424147  
     452A      9.486658   453A      9.651946   454A      9.832933  
     455A      9.877023   456A      9.913849   457A      9.941468  
     458A     10.092204   459A     11.028285   460A     11.691507  
     461A     11.972572   462A     13.739207   463A     13.874214  
     464A     14.491420   465A     14.693467   466A     43.607382  
     467A     44.857190   468A     45.903728   469A     60.831529  

    Final Occupation by Irrep:
              A 
    DOCC [    13 ]

  @DF-RHF Final Energy:  -118.30807808967376

   => Energetics <=

    Nuclear Repulsion Energy =             82.8069550953044171
    One-Electron Energy =                -321.9682681375600168
    Two-Electron Energy =                 120.8532349525818290
    Total Energy =                       -118.3080780896737565

Computation Completed


Properties will be evaluated at   0.000000,   0.000000,   0.000000 [a0]

Properties computed using the SCF density matrix

  Nuclear Dipole Moment: [e a0]
     X:  -101.4842      Y:     2.8861      Z:     1.6791

  Electronic Dipole Moment: [e a0]
     X:   101.4883      Y:    -2.8923      Z:    -1.7113

  Dipole Moment: [e a0]
     X:     0.0041      Y:    -0.0062      Z:    -0.0322     Total:     0.0331

  Dipole Moment: [D]
     X:     0.0105      Y:    -0.0157      Z:    -0.0819     Total:     0.0840


*** tstop() called on r282 at Fri Sep 10 12:48:36 2021
Module time:
	user time   =      24.64 seconds =       0.41 minutes
	system time =       0.49 seconds =       0.01 minutes
	total time  =         25 seconds =       0.42 minutes
Total time:
	user time   =     106.04 seconds =       1.77 minutes
	system time =       2.28 seconds =       0.04 minutes
	total time  =        108 seconds =       1.80 minutes
  Constructing Basis Sets for SAPT...

   => Loading Basis Set <=

    Name: (JUN-CC-PVTZ AUX)
    Role: RIFIT
    Keyword: DF_BASIS_SAPT
    atoms 1, 5, 7-10, 14-21 entry H          line    30 file /home/r08543048/miniconda3/share/psi4/basis/jun-cc-pvtz-ri.gbs 
    atoms 2-3, 6, 11-13     entry C          line   132 file /home/r08543048/miniconda3/share/psi4/basis/jun-cc-pvtz-ri.gbs 
    atoms 4                 entry O          line   244 file /home/r08543048/miniconda3/share/psi4/basis/jun-cc-pvtz-ri.gbs 


  //>>>>>>>>>>>>>>>>>>>>>>>>>>>>>>>>>>>//
  //               SAPT0               //
  //<<<<<<<<<<<<<<<<<<<<<<<<<<<<<<<<<<<//


*** tstart() called on r282
*** at Fri Sep 10 12:48:36 2021

        SAPT0  
    Ed Hohenstein
     6 June 2009

      Orbital Information
  --------------------------
    NSO        =       469
    NMO        =       469
    NRI        =      1099
    NOCC A     =        16
    NOCC B     =        13
    FOCC A     =         0
    FOCC B     =         0
    NVIR A     =       453
    NVIR B     =       456

    Elst10,r            =    -0.001935428495 [Eh]
    Exch10              =     0.005902809707 [Eh]
    Exch10 (S^2)        =     0.005892393567 [Eh]

    Iter     Energy [mEh]          dE [mEh]         Residual      Time [s]
       1      -0.33021151       0.330211514       2.331104018             0
       2      -0.40009138       0.069879862       0.436881828             1
       3      -0.39985611      -0.000235268       0.158964494             2
       4      -0.39905674      -0.000799372       0.054252917             3
       5      -0.39897135      -0.000085383       0.018574376             4
       6      -0.39908295       0.000111596       0.008816587             4
       7      -0.39907800      -0.000004950       0.004891126             5
       8      -0.39905936      -0.000018641       0.001261810             6
       9      -0.39906296       0.000003607       0.000479981             7
      10      -0.39906374       0.000000771       0.000167981             7
      11      -0.39906322      -0.000000518       0.000053126             8
      12      -0.39906323       0.000000010       0.000017876             9
      13      -0.39906327       0.000000040       0.000004026            10
      14      -0.39906326      -0.000000009       0.000000923            10

    CHF Iterations converged


    Iter     Energy [mEh]          dE [mEh]         Residual      Time [s]
       1      -0.88280677       0.882806766       4.455516661             1
       2      -1.04916755       0.166360780       1.412137829             2
       3      -1.06780578       0.018638230       0.310487486             3
       4      -1.06442239      -0.003383388       0.100409786             3
       5      -1.06355314      -0.000869248       0.017087440             4
       6      -1.06375634       0.000203200       0.004077402             5
       7      -1.06376444       0.000008102       0.001058599             6
       8      -1.06375696      -0.000007477       0.000248594             6
       9      -1.06375687      -0.000000097       0.000060713             7
      10      -1.06375719       0.000000323       0.000015196             8
      11      -1.06375719       0.000000001       0.000004179             9
      12      -1.06375717      -0.000000017       0.000000914             9

    CHF Iterations converged

    Ind20,r (A<-B)      =    -0.000399063259 [Eh]
    Ind20,r (B<-A)      =    -0.001063757174 [Eh]
    Ind20,r             =    -0.001462820433 [Eh]
    Exch-Ind20,r (A<-B) =     0.000340661802 [Eh]
    Exch-Ind20,r (B<-A) =     0.000679213736 [Eh]
    Exch-Ind20,r        =     0.001019875537 [Eh]
    Disp20              =    -0.007731891401 [Eh]
    Disp20 (SS)         =    -0.003865945700 [Eh]
    Disp20 (OS)         =    -0.003865945700 [Eh]
    Exch-Disp20         =     0.000632083168 [Eh]
    Exch-Disp20 (SS)    =     0.000413381337 [Eh]
    Exch-Disp20 (OS)    =     0.000218701831 [Eh]

    SAPT Results 
  --------------------------------------------------------------------------------------------------------
    Electrostatics                 -1.93542850 [mEh]      -1.21449972 [kcal/mol]      -5.08146681 [kJ/mol]
      Elst10,r                     -1.93542850 [mEh]      -1.21449972 [kcal/mol]      -5.08146681 [kJ/mol]

    Exchange                        5.90280971 [mEh]       3.70406901 [kcal/mol]      15.49782475 [kJ/mol]
      Exch10                        5.90280971 [mEh]       3.70406901 [kcal/mol]      15.49782475 [kJ/mol]
      Exch10(S^2)                   5.89239357 [mEh]       3.69753279 [kcal/mol]      15.47047718 [kJ/mol]

    Induction                      -0.84364929 [mEh]      -0.52939792 [kcal/mol]      -2.21500090 [kJ/mol]
      Ind20,r                      -1.46282043 [mEh]      -0.91793368 [kcal/mol]      -3.84063452 [kJ/mol]
      Exch-Ind20,r                  1.01987554 [mEh]       0.63998156 [kcal/mol]       2.67768285 [kJ/mol]
      delta HF,r (2)               -0.40070439 [mEh]      -0.25144580 [kcal/mol]      -1.05204924 [kJ/mol]

    Dispersion                     -7.09980823 [mEh]      -4.45519693 [kcal/mol]     -18.64054395 [kJ/mol]
      Disp20                       -7.73189140 [mEh]      -4.85183510 [kcal/mol]     -20.30007808 [kJ/mol]
      Exch-Disp20                   0.63208317 [mEh]       0.39663818 [kcal/mol]       1.65953413 [kJ/mol]
      Disp20 (SS)                  -3.86594570 [mEh]      -2.42591755 [kcal/mol]     -10.15003904 [kJ/mol]
      Disp20 (OS)                  -3.86594570 [mEh]      -2.42591755 [kcal/mol]     -10.15003904 [kJ/mol]
      Exch-Disp20 (SS)              0.41338134 [mEh]       0.25940071 [kcal/mol]       1.08533255 [kJ/mol]
      Exch-Disp20 (OS)              0.21870183 [mEh]       0.13723747 [kcal/mol]       0.57420158 [kJ/mol]

  Total HF                          3.12373192 [mEh]       1.96017138 [kcal/mol]       8.20135704 [kJ/mol]
  Total SAPT0                      -3.97607631 [mEh]      -2.49502555 [kcal/mol]     -10.43918691 [kJ/mol]

  Special recipe for scaled SAPT0 (see Manual):
    Electrostatics sSAPT0          -1.93542850 [mEh]      -1.21449972 [kcal/mol]      -5.08146681 [kJ/mol]
    Exchange sSAPT0                 5.90280971 [mEh]       3.70406901 [kcal/mol]      15.49782475 [kJ/mol]
    Induction sSAPT0               -0.83823114 [mEh]      -0.52599798 [kcal/mol]      -2.20077555 [kJ/mol]
    Dispersion sSAPT0              -7.09645025 [mEh]      -4.45308976 [kcal/mol]     -18.63172757 [kJ/mol]
  Total sSAPT0                     -3.96730018 [mEh]      -2.48951845 [kcal/mol]     -10.41614519 [kJ/mol]
  --------------------------------------------------------------------------------------------------------

*** tstop() called on r282 at Fri Sep 10 12:50:07 2021
Module time:
	user time   =      76.48 seconds =       1.27 minutes
	system time =      13.36 seconds =       0.22 minutes
	total time  =         91 seconds =       1.52 minutes
Total time:
	user time   =     182.66 seconds =       3.04 minutes
	system time =      15.64 seconds =       0.26 minutes
	total time  =        199 seconds =       3.32 minutes

    Psi4 stopped on: Friday, 10 September 2021 12:50PM
    Psi4 wall time for execution: 0:03:19.46

*** Psi4 exiting successfully. Buy a developer a beer!
