
    -----------------------------------------------------------------------
          Psi4: An Open-Source Ab Initio Electronic Structure Package
                               Psi4 1.3.2 release

                         Git: Rev {HEAD} ecbda83 


    R. M. Parrish, L. A. Burns, D. G. A. Smith, A. C. Simmonett,
    A. E. DePrince III, E. G. Hohenstein, U. Bozkaya, A. Yu. Sokolov,
    R. Di Remigio, R. M. Richard, J. F. Gonthier, A. M. James,
    H. R. McAlexander, A. Kumar, M. Saitow, X. Wang, B. P. Pritchard,
    P. Verma, H. F. Schaefer III, K. Patkowski, R. A. King, E. F. Valeev,
    F. A. Evangelista, J. M. Turney, T. D. Crawford, and C. D. Sherrill,
    J. Chem. Theory Comput. 13(7) pp 3185--3197 (2017).
    (doi: 10.1021/acs.jctc.7b00174)


                         Additional Contributions by
    P. Kraus, H. Kruse, M. H. Lechner, M. C. Schieber, R. A. Shaw,
    A. Alenaizan, R. Galvelis, Z. L. Glick, S. Lehtola, and J. P. Misiewicz

    -----------------------------------------------------------------------


    Psi4 started on: Friday, 10 September 2021 12:28PM

    Process ID: 56622
    Host:       r282
    PSIDATADIR: /home/r08543048/miniconda3/share/psi4
    Memory:     500.0 MiB
    Threads:    1
    
  ==> Input File <==

--------------------------------------------------------------------------
# Any line starting with the # character is a comment line
#! Sample  computation

memory 22 gb

molecule Dimer {
0 1
 H -0.448001    2.476867    1.087831
 C -1.383835    0.503661    0.722564
 C -0.733933    1.781352    0.276520
 O -0.515087    2.073824   -0.883571
 H -2.248988    0.778889    1.337083
 C -1.784263   -0.427801   -0.407581
 H -2.478096    0.092547   -1.069364
 H -0.904657   -0.657703   -1.009844
 H -0.688132    0.014031    1.414434
 C -2.413082   -1.711415    0.118612
 H -1.715148   -2.253624    0.758175
 H -3.306013   -1.497324    0.707460
 H -2.701194   -2.373543   -0.696848


    
    
    
 --
0 1
 C  1.758954   -1.755379   -0.115024
 C  2.170519   -0.354333   -0.550970
 C  2.589060    0.511055    0.631099
 H  2.583572   -2.263429    0.387284
 H  0.922692   -1.715088    0.585679
 H  1.453253   -2.368703   -0.962691
 H  1.348448    0.127865   -1.083206
 H  2.997473   -0.422427   -1.260626
 H  2.856386    1.519241    0.315879
 H  1.780614    0.591729    1.360622
 H  3.447970    0.077243    1.145377
  
  
  





units angstrom

no_reorient
symmetry c1
}

set globals{
  basis jun-cc-pvtz
}

energy('sapt0')


--------------------------------------------------------------------------

  Memory set to  20.489 GiB by Python driver.

  //>>>>>>>>>>>>>>>>>>>>>>>>>>>>>>>>>>>//
  //              Dimer HF             //
  //<<<<<<<<<<<<<<<<<<<<<<<<<<<<<<<<<<<//


*** tstart() called on r282
*** at Fri Sep 10 12:28:05 2021

   => Loading Basis Set <=

    Name: JUN-CC-PVTZ
    Role: ORBITAL
    Keyword: BASIS
    atoms 1, 5, 7-9, 11-13, 17-24 entry H          line    36 file /home/r08543048/miniconda3/share/psi4/basis/jun-cc-pvtz.gbs 
    atoms 2-3, 6, 10, 14-16       entry C          line   217 file /home/r08543048/miniconda3/share/psi4/basis/jun-cc-pvtz.gbs 
    atoms 4                       entry O          line   305 file /home/r08543048/miniconda3/share/psi4/basis/jun-cc-pvtz.gbs 


         ---------------------------------------------------------
                                   SCF
               by Justin Turney, Rob Parrish, Andy Simmonett
                          and Daniel G. A. Smith
                              RHF Reference
                        1 Threads,  20980 MiB Core
         ---------------------------------------------------------

  ==> Geometry <==

    Molecular point group: c1
    Full point group: C1

    Geometry (in Angstrom), charge = 0, multiplicity = 1:

       Center              X                  Y                   Z               Mass       
    ------------   -----------------  -----------------  -----------------  -----------------
         H           -0.423243363572     2.409684161168     1.113572859302     1.007825032230
         C           -1.359077363572     0.436478161168     0.748305859302    12.000000000000
         C           -0.709175363572     1.714169161168     0.302261859302    12.000000000000
         O           -0.490329363572     2.006641161168    -0.857829140698    15.994914619570
         H           -2.224230363572     0.711706161168     1.362824859302     1.007825032230
         C           -1.759505363572    -0.494983838832    -0.381839140698    12.000000000000
         H           -2.453338363572     0.025364161168    -1.043622140698     1.007825032230
         H           -0.879899363572    -0.724885838832    -0.984102140698     1.007825032230
         H           -0.663374363572    -0.053151838832     1.440175859302     1.007825032230
         C           -2.388324363572    -1.778597838832     0.144353859302    12.000000000000
         H           -1.690390363572    -2.320806838832     0.783916859302     1.007825032230
         H           -3.281255363572    -1.564506838832     0.733201859302     1.007825032230
         H           -2.676436363572    -2.440725838832    -0.671106140698     1.007825032230
         C            1.783711636428    -1.822561838832    -0.089282140698    12.000000000000
         C            2.195276636428    -0.421515838832    -0.525228140698    12.000000000000
         C            2.613817636428     0.443872161168     0.656840859302    12.000000000000
         H            2.608329636428    -2.330611838832     0.413025859302     1.007825032230
         H            0.947449636428    -1.782270838832     0.611420859302     1.007825032230
         H            1.478010636428    -2.435885838832    -0.936949140698     1.007825032230
         H            1.373205636428     0.060682161168    -1.057464140698     1.007825032230
         H            3.022230636428    -0.489609838832    -1.234884140698     1.007825032230
         H            2.881143636428     1.452058161168     0.341620859302     1.007825032230
         H            1.805371636428     0.524546161168     1.386363859302     1.007825032230
         H            3.472727636428     0.010060161168     1.171118859302     1.007825032230

  Running in c1 symmetry.

  Rotational constants: A =      0.06205  B =      0.03826  C =      0.02722 [cm^-1]
  Rotational constants: A =   1860.16158  B =   1147.01572  C =    815.95030 [MHz]
  Nuclear repulsion =  387.633111150431546

  Charge       = 0
  Multiplicity = 1
  Electrons    = 66
  Nalpha       = 33
  Nbeta        = 33

  ==> Algorithm <==

  SCF Algorithm Type is DF.
  DIIS enabled.
  MOM disabled.
  Fractional occupation disabled.
  Guess Type is SAD.
  Energy threshold   = 1.00e-08
  Density threshold  = 1.00e-08
  Integral threshold = 0.00e+00

  ==> Primary Basis <==

  Basis Set: JUN-CC-PVTZ
    Blend: JUN-CC-PVTZ
    Number of shells: 200
    Number of basis function: 536
    Number of Cartesian functions: 600
    Spherical Harmonics?: true
    Max angular momentum: 3

   => Loading Basis Set <=

    Name: (JUN-CC-PVTZ AUX)
    Role: JKFIT
    Keyword: DF_BASIS_SCF
    atoms 1, 5, 7-9, 11-13, 17-24 entry H          line    70 file /home/r08543048/miniconda3/share/psi4/basis/jun-cc-pvtz-jkfit.gbs 
    atoms 2-3, 6, 10, 14-16       entry C          line   152 file /home/r08543048/miniconda3/share/psi4/basis/jun-cc-pvtz-jkfit.gbs 
    atoms 4                       entry O          line   272 file /home/r08543048/miniconda3/share/psi4/basis/jun-cc-pvtz-jkfit.gbs 

  ==> Pre-Iterations <==

   -------------------------------------------------------
    Irrep   Nso     Nmo     Nalpha   Nbeta   Ndocc  Nsocc
   -------------------------------------------------------
     A        536     536       0       0       0       0
   -------------------------------------------------------
    Total     536     536      33      33      33       0
   -------------------------------------------------------

  ==> Integral Setup <==

  ==> DiskDFJK: Density-Fitted J/K Matrices <==

    J tasked:                  Yes
    K tasked:                  Yes
    wK tasked:                  No
    OpenMP threads:              1
    Integrals threads:           1
    Memory [MiB]:            15735
    Algorithm:                Core
    Integral Cache:           SAVE
    Schwarz Cutoff:          1E-12
    Fitting Condition:       1E-10

   => Auxiliary Basis Set <=

  Basis Set: (JUN-CC-PVTZ AUX)
    Blend: JUN-CC-PVTZ-JKFIT
    Number of shells: 392
    Number of basis function: 1240
    Number of Cartesian functions: 1488
    Spherical Harmonics?: true
    Max angular momentum: 4

  Minimum eigenvalue in the overlap matrix is 3.3533966283E-05.
  Using Symmetric Orthogonalization.

  SCF Guess: Superposition of Atomic Densities via on-the-fly atomic UHF.

  ==> Iterations <==

                           Total Energy        Delta E     RMS |[F,P]|

   @DF-RHF iter SAD:  -348.14368787282973   -3.48144e+02   0.00000e+00 
   @DF-RHF iter   1:  -349.00730327374094   -8.63615e-01   1.48660e-03 DIIS
   @DF-RHF iter   2:  -349.28828513763966   -2.80982e-01   8.23866e-04 DIIS
   @DF-RHF iter   3:  -349.37008230534639   -8.17972e-02   1.73210e-04 DIIS
   @DF-RHF iter   4:  -349.37539255026888   -5.31024e-03   8.18286e-05 DIIS
   @DF-RHF iter   5:  -349.37644423298116   -1.05168e-03   1.23972e-05 DIIS
   @DF-RHF iter   6:  -349.37649582841351   -5.15954e-05   4.76349e-06 DIIS
   @DF-RHF iter   7:  -349.37650287123165   -7.04282e-06   1.93954e-06 DIIS
   @DF-RHF iter   8:  -349.37650429030407   -1.41907e-06   7.10457e-07 DIIS
   @DF-RHF iter   9:  -349.37650452410304   -2.33799e-07   1.68918e-07 DIIS
   @DF-RHF iter  10:  -349.37650453716651   -1.30635e-08   4.46342e-08 DIIS
   @DF-RHF iter  11:  -349.37650453789922   -7.32712e-10   1.50446e-08 DIIS
   @DF-RHF iter  12:  -349.37650453801979   -1.20565e-10   7.24756e-09 DIIS
  Energy and wave function converged.


  ==> Post-Iterations <==

    Orbital Energies [Eh]
    ---------------------

    Doubly Occupied:                                                      

       1A    -20.556985     2A    -11.332910     3A    -11.242020  
       4A    -11.225190     5A    -11.218025     6A    -11.213022  
       7A    -11.210163     8A    -11.210003     9A     -1.388427  
      10A     -1.083873    11A     -1.054721    12A     -0.977929  
      13A     -0.927116    14A     -0.849091    15A     -0.800615  
      16A     -0.771153    17A     -0.674062    18A     -0.656912  
      19A     -0.634231    20A     -0.620218    21A     -0.599694  
      22A     -0.569939    23A     -0.569445    24A     -0.551700  
      25A     -0.532782    26A     -0.512711    27A     -0.503257  
      28A     -0.492101    29A     -0.483856    30A     -0.475898  
      31A     -0.475730    32A     -0.463616    33A     -0.420881  

    Virtual:                                                              

      34A      0.043451    35A      0.049003    36A      0.057252  
      37A      0.059808    38A      0.067545    39A      0.073078  
      40A      0.078349    41A      0.085128    42A      0.089514  
      43A      0.103804    44A      0.106702    45A      0.114525  
      46A      0.115891    47A      0.120592    48A      0.121862  
      49A      0.128639    50A      0.132927    51A      0.143137  
      52A      0.150458    53A      0.154303    54A      0.158349  
      55A      0.167300    56A      0.177622    57A      0.182213  
      58A      0.189223    59A      0.190237    60A      0.208398  
      61A      0.215769    62A      0.226335    63A      0.240189  
      64A      0.243963    65A      0.254898    66A      0.262330  
      67A      0.270360    68A      0.276596    69A      0.287318  
      70A      0.289031    71A      0.291372    72A      0.295200  
      73A      0.305020    74A      0.310274    75A      0.312560  
      76A      0.319615    77A      0.322969    78A      0.327306  
      79A      0.329913    80A      0.339192    81A      0.345549  
      82A      0.349450    83A      0.352895    84A      0.357978  
      85A      0.365574    86A      0.368960    87A      0.372684  
      88A      0.383242    89A      0.386554    90A      0.392743  
      91A      0.397439    92A      0.405987    93A      0.410629  
      94A      0.418785    95A      0.425078    96A      0.425267  
      97A      0.436929    98A      0.450947    99A      0.454860  
     100A      0.460865   101A      0.465155   102A      0.480259  
     103A      0.483163   104A      0.503001   105A      0.509219  
     106A      0.514065   107A      0.524430   108A      0.528343  
     109A      0.532815   110A      0.543279   111A      0.544001  
     112A      0.546908   113A      0.560078   114A      0.564564  
     115A      0.574942   116A      0.588369   117A      0.594519  
     118A      0.596456   119A      0.600577   120A      0.612953  
     121A      0.628977   122A      0.645195   123A      0.655773  
     124A      0.662670   125A      0.676602   126A      0.683680  
     127A      0.691542   128A      0.699114   129A      0.704607  
     130A      0.709415   131A      0.722921   132A      0.734384  
     133A      0.749474   134A      0.757712   135A      0.767970  
     136A      0.770176   137A      0.773604   138A      0.784551  
     139A      0.789459   140A      0.801923   141A      0.813721  
     142A      0.817945   143A      0.824394   144A      0.828888  
     145A      0.834759   146A      0.839310   147A      0.847744  
     148A      0.857230   149A      0.867050   150A      0.872447  
     151A      0.879144   152A      0.880332   153A      0.886560  
     154A      0.896260   155A      0.903448   156A      0.910911  
     157A      0.925105   158A      0.936784   159A      0.944089  
     160A      0.950021   161A      0.970940   162A      0.980521  
     163A      0.988344   164A      0.997870   165A      1.005874  
     166A      1.012955   167A      1.026387   168A      1.039218  
     169A      1.056210   170A      1.061063   171A      1.090795  
     172A      1.097190   173A      1.117844   174A      1.120408  
     175A      1.126313   176A      1.152150   177A      1.160169  
     178A      1.180325   179A      1.195706   180A      1.206439  
     181A      1.218218   182A      1.231761   183A      1.237279  
     184A      1.253063   185A      1.263890   186A      1.279089  
     187A      1.288512   188A      1.304228   189A      1.315022  
     190A      1.319175   191A      1.336844   192A      1.343054  
     193A      1.362832   194A      1.368732   195A      1.369716  
     196A      1.374118   197A      1.382961   198A      1.394200  
     199A      1.414338   200A      1.422582   201A      1.428346  
     202A      1.434188   203A      1.443565   204A      1.449150  
     205A      1.464269   206A      1.469516   207A      1.474769  
     208A      1.494838   209A      1.496075   210A      1.507618  
     211A      1.513447   212A      1.531757   213A      1.543099  
     214A      1.546822   215A      1.560815   216A      1.568911  
     217A      1.578444   218A      1.586902   219A      1.591569  
     220A      1.604853   221A      1.611068   222A      1.614968  
     223A      1.621097   224A      1.636086   225A      1.646344  
     226A      1.649687   227A      1.673735   228A      1.679166  
     229A      1.682683   230A      1.695483   231A      1.705756  
     232A      1.709962   233A      1.715290   234A      1.732704  
     235A      1.761155   236A      1.779757   237A      1.782143  
     238A      1.815334   239A      1.831092   240A      1.838718  
     241A      1.854763   242A      1.859502   243A      1.870195  
     244A      1.884895   245A      1.900068   246A      1.912300  
     247A      1.927760   248A      1.938016   249A      1.947840  
     250A      1.957496   251A      1.968485   252A      1.977759  
     253A      2.002148   254A      2.009810   255A      2.025604  
     256A      2.059421   257A      2.130963   258A      2.219224  
     259A      2.315491   260A      2.415639   261A      2.428513  
     262A      2.477651   263A      2.582653   264A      2.693298  
     265A      2.719629   266A      2.736289   267A      2.752918  
     268A      2.759529   269A      2.767350   270A      2.791985  
     271A      2.827579   272A      2.835356   273A      2.844112  
     274A      2.855517   275A      2.884135   276A      2.894480  
     277A      2.899839   278A      2.920049   279A      2.925506  
     280A      2.936564   281A      2.955354   282A      2.963491  
     283A      2.975232   284A      2.992352   285A      2.995529  
     286A      3.018411   287A      3.033871   288A      3.045082  
     289A      3.061740   290A      3.084317   291A      3.102190  
     292A      3.104168   293A      3.114658   294A      3.121253  
     295A      3.128184   296A      3.137223   297A      3.147682  
     298A      3.159940   299A      3.181317   300A      3.184776  
     301A      3.201645   302A      3.224316   303A      3.252921  
     304A      3.259870   305A      3.282980   306A      3.286790  
     307A      3.291955   308A      3.301299   309A      3.308990  
     310A      3.320507   311A      3.321238   312A      3.331652  
     313A      3.344319   314A      3.357135   315A      3.365185  
     316A      3.376384   317A      3.381965   318A      3.398248  
     319A      3.406414   320A      3.412035   321A      3.429902  
     322A      3.441307   323A      3.444827   324A      3.451506  
     325A      3.466410   326A      3.472763   327A      3.482289  
     328A      3.489316   329A      3.493467   330A      3.501699  
     331A      3.504927   332A      3.511950   333A      3.525629  
     334A      3.529086   335A      3.538362   336A      3.550126  
     337A      3.558256   338A      3.559539   339A      3.562163  
     340A      3.572294   341A      3.586170   342A      3.599968  
     343A      3.606926   344A      3.623190   345A      3.634038  
     346A      3.646433   347A      3.658769   348A      3.679746  
     349A      3.699405   350A      3.711105   351A      3.729546  
     352A      3.735696   353A      3.756641   354A      3.763042  
     355A      3.776530   356A      3.783405   357A      3.792635  
     358A      3.805423   359A      3.820903   360A      3.828370  
     361A      3.831220   362A      3.850273   363A      3.866450  
     364A      3.875041   365A      3.884533   366A      3.895478  
     367A      3.919910   368A      3.927461   369A      3.937767  
     370A      3.945063   371A      3.950744   372A      3.956414  
     373A      3.973067   374A      3.981378   375A      3.992287  
     376A      3.996820   377A      4.026596   378A      4.040759  
     379A      4.064412   380A      4.100690   381A      4.124050  
     382A      4.127788   383A      4.138932   384A      4.177785  
     385A      4.187672   386A      4.196409   387A      4.208011  
     388A      4.220927   389A      4.233399   390A      4.246763  
     391A      4.251080   392A      4.267255   393A      4.272716  
     394A      4.282051   395A      4.307041   396A      4.311413  
     397A      4.325020   398A      4.333428   399A      4.342419  
     400A      4.345709   401A      4.356167   402A      4.366585  
     403A      4.373532   404A      4.382676   405A      4.391372  
     406A      4.403455   407A      4.406544   408A      4.430322  
     409A      4.436916   410A      4.456018   411A      4.470658  
     412A      4.493580   413A      4.501466   414A      4.506373  
     415A      4.512655   416A      4.516192   417A      4.531416  
     418A      4.539919   419A      4.554302   420A      4.567426  
     421A      4.576028   422A      4.586710   423A      4.588224  
     424A      4.606535   425A      4.620076   426A      4.635248  
     427A      4.646879   428A      4.657670   429A      4.678335  
     430A      4.699707   431A      4.700784   432A      4.712099  
     433A      4.715945   434A      4.767693   435A      4.787043  
     436A      4.807552   437A      4.820996   438A      4.830830  
     439A      4.852108   440A      4.858168   441A      4.870829  
     442A      4.872738   443A      4.884978   444A      4.890885  
     445A      4.933287   446A      4.981346   447A      4.999817  
     448A      5.009913   449A      5.015229   450A      5.038411  
     451A      5.068205   452A      5.092300   453A      5.111286  
     454A      5.120838   455A      5.132684   456A      5.143449  
     457A      5.172798   458A      5.190080   459A      5.204607  
     460A      5.261842   461A      5.275825   462A      5.279434  
     463A      5.283391   464A      5.287271   465A      5.299487  
     466A      5.311730   467A      5.326588   468A      5.342464  
     469A      5.360837   470A      5.369674   471A      5.396592  
     472A      5.404462   473A      5.412520   474A      5.435821  
     475A      5.462543   476A      5.481824   477A      5.510773  
     478A      5.524796   479A      5.574660   480A      5.584284  
     481A      5.591551   482A      5.602187   483A      5.618348  
     484A      5.669421   485A      5.699620   486A      5.705303  
     487A      5.725789   488A      5.749572   489A      5.758225  
     490A      5.761766   491A      5.771836   492A      5.780350  
     493A      5.795571   494A      5.806031   495A      5.825137  
     496A      5.826743   497A      5.853898   498A      5.887956  
     499A      5.905629   500A      5.928948   501A      5.933361  
     502A      5.944392   503A      5.958302   504A      5.966568  
     505A      5.987388   506A      6.018148   507A      6.118517  
     508A      6.123169   509A      6.137712   510A      6.246311  
     511A      6.321611   512A      6.472003   513A      6.509382  
     514A      6.523913   515A      6.529468   516A      6.537867  
     517A      6.559753   518A      6.581864   519A      6.613373  
     520A      6.642469   521A      6.803872   522A      6.981983  
     523A      7.248859   524A      7.295207   525A      7.310314  
     526A      7.445511   527A      7.631989   528A      7.723607  
     529A     12.590872   530A     13.859673   531A     13.965517  
     532A     14.320263   533A     14.432344   534A     14.555986  
     535A     14.628021   536A     14.753283  

    Final Occupation by Irrep:
              A 
    DOCC [    33 ]

  @DF-RHF Final Energy:  -349.37650453801979

   => Energetics <=

    Nuclear Repulsion Energy =            387.6331111504315459
    One-Electron Energy =               -1241.4226798516474446
    Two-Electron Energy =                 504.4130641631961112
    Total Energy =                       -349.3765045380197876

Computation Completed


Properties will be evaluated at   0.000000,   0.000000,   0.000000 [a0]

Properties computed using the SCF density matrix

  Nuclear Dipole Moment: [e a0]
     X:     3.0878      Y:    -8.3792      Z:     3.2106

  Electronic Dipole Moment: [e a0]
     X:    -3.3730      Y:     7.9139      Z:    -2.2649

  Dipole Moment: [e a0]
     X:    -0.2852      Y:    -0.4653      Z:     0.9457     Total:     1.0919

  Dipole Moment: [D]
     X:    -0.7249      Y:    -1.1827      Z:     2.4037     Total:     2.7753


*** tstop() called on r282 at Fri Sep 10 12:29:37 2021
Module time:
	user time   =      89.63 seconds =       1.49 minutes
	system time =       1.71 seconds =       0.03 minutes
	total time  =         92 seconds =       1.53 minutes
Total time:
	user time   =      89.63 seconds =       1.49 minutes
	system time =       1.71 seconds =       0.03 minutes
	total time  =         92 seconds =       1.53 minutes

  //>>>>>>>>>>>>>>>>>>>>>>>>>>>>>>>>>>>//
  //            Monomer A HF           //
  //<<<<<<<<<<<<<<<<<<<<<<<<<<<<<<<<<<<//


*** tstart() called on r282
*** at Fri Sep 10 12:29:37 2021

   => Loading Basis Set <=

    Name: JUN-CC-PVTZ
    Role: ORBITAL
    Keyword: BASIS
    atoms 1, 5, 7-9, 11-13, 17-24 entry H          line    36 file /home/r08543048/miniconda3/share/psi4/basis/jun-cc-pvtz.gbs 
    atoms 2-3, 6, 10, 14-16       entry C          line   217 file /home/r08543048/miniconda3/share/psi4/basis/jun-cc-pvtz.gbs 
    atoms 4                       entry O          line   305 file /home/r08543048/miniconda3/share/psi4/basis/jun-cc-pvtz.gbs 


         ---------------------------------------------------------
                                   SCF
               by Justin Turney, Rob Parrish, Andy Simmonett
                          and Daniel G. A. Smith
                              RHF Reference
                        1 Threads,  20980 MiB Core
         ---------------------------------------------------------

  ==> Geometry <==

    Molecular point group: c1
    Full point group: C1

    Geometry (in Angstrom), charge = 0, multiplicity = 1:

       Center              X                  Y                   Z               Mass       
    ------------   -----------------  -----------------  -----------------  -----------------
         H           -0.423243363572     2.409684161168     1.113572859302     1.007825032230
         C           -1.359077363572     0.436478161168     0.748305859302    12.000000000000
         C           -0.709175363572     1.714169161168     0.302261859302    12.000000000000
         O           -0.490329363572     2.006641161168    -0.857829140698    15.994914619570
         H           -2.224230363572     0.711706161168     1.362824859302     1.007825032230
         C           -1.759505363572    -0.494983838832    -0.381839140698    12.000000000000
         H           -2.453338363572     0.025364161168    -1.043622140698     1.007825032230
         H           -0.879899363572    -0.724885838832    -0.984102140698     1.007825032230
         H           -0.663374363572    -0.053151838832     1.440175859302     1.007825032230
         C           -2.388324363572    -1.778597838832     0.144353859302    12.000000000000
         H           -1.690390363572    -2.320806838832     0.783916859302     1.007825032230
         H           -3.281255363572    -1.564506838832     0.733201859302     1.007825032230
         H           -2.676436363572    -2.440725838832    -0.671106140698     1.007825032230
      Gh(C)           1.783711636428    -1.822561838832    -0.089282140698    12.000000000000
      Gh(C)           2.195276636428    -0.421515838832    -0.525228140698    12.000000000000
      Gh(C)           2.613817636428     0.443872161168     0.656840859302    12.000000000000
      Gh(H)           2.608329636428    -2.330611838832     0.413025859302     1.007825032230
      Gh(H)           0.947449636428    -1.782270838832     0.611420859302     1.007825032230
      Gh(H)           1.478010636428    -2.435885838832    -0.936949140698     1.007825032230
      Gh(H)           1.373205636428     0.060682161168    -1.057464140698     1.007825032230
      Gh(H)           3.022230636428    -0.489609838832    -1.234884140698     1.007825032230
      Gh(H)           2.881143636428     1.452058161168     0.341620859302     1.007825032230
      Gh(H)           1.805371636428     0.524546161168     1.386363859302     1.007825032230
      Gh(H)           3.472727636428     0.010060161168     1.171118859302     1.007825032230

  Running in c1 symmetry.

  Rotational constants: A =      0.06205  B =      0.03826  C =      0.02722 [cm^-1]
  Rotational constants: A =   1860.16158  B =   1147.01572  C =    815.95030 [MHz]
  Nuclear repulsion =  172.383001055727618

  Charge       = 0
  Multiplicity = 1
  Electrons    = 40
  Nalpha       = 20
  Nbeta        = 20

  ==> Algorithm <==

  SCF Algorithm Type is DF.
  DIIS enabled.
  MOM disabled.
  Fractional occupation disabled.
  Guess Type is SAD.
  Energy threshold   = 1.00e-08
  Density threshold  = 1.00e-08
  Integral threshold = 0.00e+00

  ==> Primary Basis <==

  Basis Set: JUN-CC-PVTZ
    Blend: JUN-CC-PVTZ
    Number of shells: 200
    Number of basis function: 536
    Number of Cartesian functions: 600
    Spherical Harmonics?: true
    Max angular momentum: 3

   => Loading Basis Set <=

    Name: (JUN-CC-PVTZ AUX)
    Role: JKFIT
    Keyword: DF_BASIS_SCF
    atoms 1, 5, 7-9, 11-13, 17-24 entry H          line    70 file /home/r08543048/miniconda3/share/psi4/basis/jun-cc-pvtz-jkfit.gbs 
    atoms 2-3, 6, 10, 14-16       entry C          line   152 file /home/r08543048/miniconda3/share/psi4/basis/jun-cc-pvtz-jkfit.gbs 
    atoms 4                       entry O          line   272 file /home/r08543048/miniconda3/share/psi4/basis/jun-cc-pvtz-jkfit.gbs 

  ==> Pre-Iterations <==

   -------------------------------------------------------
    Irrep   Nso     Nmo     Nalpha   Nbeta   Ndocc  Nsocc
   -------------------------------------------------------
     A        536     536       0       0       0       0
   -------------------------------------------------------
    Total     536     536      20      20      20       0
   -------------------------------------------------------

  ==> Integral Setup <==

  ==> DiskDFJK: Density-Fitted J/K Matrices <==

    J tasked:                  Yes
    K tasked:                  Yes
    wK tasked:                  No
    OpenMP threads:              1
    Integrals threads:           1
    Memory [MiB]:            15735
    Algorithm:                Core
    Integral Cache:           LOAD
    Schwarz Cutoff:          1E-12
    Fitting Condition:       1E-10

   => Auxiliary Basis Set <=

  Basis Set: (JUN-CC-PVTZ AUX)
    Blend: JUN-CC-PVTZ-JKFIT
    Number of shells: 392
    Number of basis function: 1240
    Number of Cartesian functions: 1488
    Spherical Harmonics?: true
    Max angular momentum: 4

  Minimum eigenvalue in the overlap matrix is 3.3533966283E-05.
  Using Symmetric Orthogonalization.

  SCF Guess: Superposition of Atomic Densities via on-the-fly atomic UHF.

  ==> Iterations <==

                           Total Energy        Delta E     RMS |[F,P]|

   @DF-RHF iter SAD:  -230.24313974913520   -2.30243e+02   0.00000e+00 
   @DF-RHF iter   1:  -230.86150252923420   -6.18363e-01   1.15027e-03 DIIS
   @DF-RHF iter   2:  -231.01355381091392   -1.52051e-01   7.05354e-04 DIIS
   @DF-RHF iter   3:  -231.06785037469925   -5.42966e-02   1.38703e-04 DIIS
   @DF-RHF iter   4:  -231.07127772285938   -3.42735e-03   5.95122e-05 DIIS
   @DF-RHF iter   5:  -231.07193288156395   -6.55159e-04   1.04146e-05 DIIS
   @DF-RHF iter   6:  -231.07197280843383   -3.99269e-05   4.30225e-06 DIIS
   @DF-RHF iter   7:  -231.07197907454545   -6.26611e-06   1.88769e-06 DIIS
   @DF-RHF iter   8:  -231.07198039185852   -1.31731e-06   6.16243e-07 DIIS
   @DF-RHF iter   9:  -231.07198056863405   -1.76776e-07   1.14607e-07 DIIS
   @DF-RHF iter  10:  -231.07198057444464   -5.81059e-09   2.99702e-08 DIIS
   @DF-RHF iter  11:  -231.07198057469577   -2.51134e-10   8.61744e-09 DIIS
  Energy and wave function converged.


  ==> Post-Iterations <==

    Orbital Energies [Eh]
    ---------------------

    Doubly Occupied:                                                      

       1A    -20.557190     2A    -11.332608     3A    -11.242368  
       4A    -11.225851     5A    -11.218572     6A     -1.387863  
       7A     -1.083746     8A     -0.978013     9A     -0.849093  
      10A     -0.770962    11A     -0.673754    12A     -0.651020  
      13A     -0.633386    14A     -0.570049    15A     -0.568722  
      16A     -0.513053    17A     -0.502425    18A     -0.492179  
      19A     -0.480474    20A     -0.420773  

    Virtual:                                                              

      21A      0.031892    22A      0.044256    23A      0.046746  
      24A      0.056961    25A      0.062682    26A      0.070733  
      27A      0.075913    28A      0.082171    29A      0.086753  
      30A      0.099786    31A      0.101097    32A      0.104924  
      33A      0.111580    34A      0.118079    35A      0.120261  
      36A      0.122416    37A      0.127507    38A      0.135181  
      39A      0.142361    40A      0.150420    41A      0.152621  
      42A      0.158881    43A      0.167328    44A      0.170404  
      45A      0.175326    46A      0.183253    47A      0.195530  
      48A      0.200026    49A      0.210181    50A      0.224973  
      51A      0.233651    52A      0.244803    53A      0.257065  
      54A      0.262820    55A      0.274807    56A      0.279661  
      57A      0.286458    58A      0.289294    59A      0.290340  
      60A      0.294029    61A      0.298623    62A      0.305013  
      63A      0.311921    64A      0.319534    65A      0.323620  
      66A      0.329227    67A      0.340766    68A      0.345773  
      69A      0.347870    70A      0.356877    71A      0.359056  
      72A      0.369924    73A      0.378225    74A      0.382318  
      75A      0.388174    76A      0.398024    77A      0.400850  
      78A      0.405259    79A      0.406475    80A      0.413079  
      81A      0.425743    82A      0.432393    83A      0.437306  
      84A      0.442636    85A      0.444494    86A      0.453839  
      87A      0.468190    88A      0.479533    89A      0.482986  
      90A      0.496165    91A      0.502506    92A      0.511237  
      93A      0.517561    94A      0.529780    95A      0.531733  
      96A      0.537717    97A      0.546697    98A      0.555814  
      99A      0.562589   100A      0.564382   101A      0.571141  
     102A      0.575527   103A      0.585116   104A      0.587698  
     105A      0.598527   106A      0.608631   107A      0.610830  
     108A      0.623485   109A      0.632649   110A      0.635153  
     111A      0.643781   112A      0.655839   113A      0.662068  
     114A      0.672818   115A      0.677036   116A      0.691939  
     117A      0.693031   118A      0.701187   119A      0.711482  
     120A      0.720249   121A      0.730835   122A      0.745517  
     123A      0.762399   124A      0.769526   125A      0.780484  
     126A      0.782562   127A      0.789715   128A      0.801891  
     129A      0.808170   130A      0.834117   131A      0.836449  
     132A      0.843185   133A      0.849369   134A      0.866310  
     135A      0.886905   136A      0.888507   137A      0.893678  
     138A      0.916403   139A      0.920444   140A      0.930431  
     141A      0.957117   142A      0.971439   143A      0.987779  
     144A      0.993304   145A      1.002041   146A      1.027642  
     147A      1.040599   148A      1.045410   149A      1.068153  
     150A      1.071884   151A      1.084929   152A      1.098065  
     153A      1.105567   154A      1.126055   155A      1.134535  
     156A      1.137913   157A      1.157226   158A      1.165722  
     159A      1.170055   160A      1.184188   161A      1.191192  
     162A      1.203567   163A      1.206312   164A      1.217855  
     165A      1.220678   166A      1.229566   167A      1.253309  
     168A      1.263939   169A      1.273203   170A      1.281378  
     171A      1.287557   172A      1.297313   173A      1.307896  
     174A      1.311297   175A      1.320403   176A      1.328613  
     177A      1.349052   178A      1.352534   179A      1.361209  
     180A      1.364837   181A      1.378794   182A      1.389515  
     183A      1.398517   184A      1.404826   185A      1.415963  
     186A      1.420450   187A      1.433618   188A      1.438582  
     189A      1.442465   190A      1.452532   191A      1.459364  
     192A      1.467436   193A      1.479864   194A      1.493918  
     195A      1.502544   196A      1.512679   197A      1.517291  
     198A      1.526047   199A      1.534477   200A      1.547815  
     201A      1.562174   202A      1.576779   203A      1.586033  
     204A      1.591477   205A      1.598913   206A      1.603560  
     207A      1.610949   208A      1.619568   209A      1.626167  
     210A      1.639004   211A      1.645221   212A      1.658053  
     213A      1.665488   214A      1.681959   215A      1.699836  
     216A      1.703020   217A      1.715156   218A      1.730963  
     219A      1.743027   220A      1.753300   221A      1.756081  
     222A      1.786506   223A      1.798171   224A      1.814129  
     225A      1.836671   226A      1.854043   227A      1.867572  
     228A      1.878109   229A      1.883925   230A      1.904511  
     231A      1.911454   232A      1.918161   233A      1.932125  
     234A      1.944267   235A      1.958614   236A      2.013669  
     237A      2.024399   238A      2.032130   239A      2.043716  
     240A      2.060095   241A      2.110878   242A      2.148541  
     243A      2.163815   244A      2.189382   245A      2.204061  
     246A      2.232593   247A      2.308591   248A      2.345629  
     249A      2.387378   250A      2.410718   251A      2.418759  
     252A      2.431999   253A      2.448470   254A      2.477015  
     255A      2.486492   256A      2.499081   257A      2.581541  
     258A      2.590133   259A      2.604958   260A      2.615965  
     261A      2.725008   262A      2.745079   263A      2.762774  
     264A      2.815709   265A      2.833786   266A      2.868097  
     267A      2.882178   268A      2.896302   269A      2.923151  
     270A      2.945013   271A      2.972005   272A      3.006610  
     273A      3.036655   274A      3.049180   275A      3.075909  
     276A      3.114677   277A      3.119723   278A      3.138947  
     279A      3.141926   280A      3.147793   281A      3.182050  
     282A      3.220233   283A      3.277181   284A      3.288097  
     285A      3.304051   286A      3.319495   287A      3.336102  
     288A      3.345574   289A      3.362663   290A      3.382381  
     291A      3.409992   292A      3.425064   293A      3.438978  
     294A      3.451605   295A      3.468768   296A      3.480264  
     297A      3.488019   298A      3.498088   299A      3.509207  
     300A      3.510086   301A      3.519929   302A      3.532156  
     303A      3.547152   304A      3.553037   305A      3.560515  
     306A      3.576785   307A      3.578862   308A      3.586300  
     309A      3.589443   310A      3.609192   311A      3.619466  
     312A      3.626188   313A      3.638458   314A      3.644025  
     315A      3.664732   316A      3.672214   317A      3.678737  
     318A      3.717649   319A      3.722165   320A      3.738188  
     321A      3.747643   322A      3.764208   323A      3.769527  
     324A      3.776393   325A      3.789360   326A      3.796574  
     327A      3.809525   328A      3.832580   329A      3.840603  
     330A      3.850533   331A      3.859701   332A      3.881433  
     333A      3.890655   334A      3.904874   335A      3.912741  
     336A      3.917635   337A      3.925577   338A      3.936546  
     339A      3.940909   340A      3.951558   341A      3.964972  
     342A      3.973382   343A      3.992132   344A      4.002917  
     345A      4.028722   346A      4.046427   347A      4.087605  
     348A      4.092926   349A      4.108822   350A      4.122888  
     351A      4.139106   352A      4.164617   353A      4.171866  
     354A      4.174705   355A      4.187099   356A      4.197468  
     357A      4.207565   358A      4.226145   359A      4.232805  
     360A      4.256888   361A      4.273708   362A      4.280564  
     363A      4.302264   364A      4.312147   365A      4.336024  
     366A      4.340391   367A      4.358400   368A      4.361196  
     369A      4.373229   370A      4.386171   371A      4.395668  
     372A      4.400048   373A      4.405868   374A      4.437520  
     375A      4.452320   376A      4.468292   377A      4.484084  
     378A      4.489751   379A      4.498471   380A      4.502496  
     381A      4.509257   382A      4.516880   383A      4.536411  
     384A      4.538186   385A      4.557682   386A      4.561268  
     387A      4.569364   388A      4.582048   389A      4.593921  
     390A      4.608211   391A      4.626273   392A      4.631611  
     393A      4.638804   394A      4.646155   395A      4.663213  
     396A      4.675927   397A      4.690755   398A      4.700832  
     399A      4.706454   400A      4.711641   401A      4.730009  
     402A      4.740189   403A      4.761781   404A      4.793536  
     405A      4.798956   406A      4.807074   407A      4.812093  
     408A      4.830733   409A      4.834498   410A      4.847007  
     411A      4.849601   412A      4.855836   413A      4.872078  
     414A      4.875239   415A      4.881617   416A      4.890853  
     417A      4.915183   418A      4.918080   419A      4.942210  
     420A      4.954134   421A      4.965332   422A      4.969649  
     423A      4.978849   424A      4.990923   425A      5.002678  
     426A      5.004035   427A      5.020723   428A      5.041990  
     429A      5.049717   430A      5.057954   431A      5.075573  
     432A      5.087362   433A      5.095010   434A      5.109378  
     435A      5.132706   436A      5.138690   437A      5.149253  
     438A      5.151004   439A      5.165982   440A      5.183993  
     441A      5.225281   442A      5.238182   443A      5.276887  
     444A      5.286840   445A      5.297847   446A      5.312797  
     447A      5.324298   448A      5.362033   449A      5.367445  
     450A      5.393314   451A      5.403448   452A      5.417659  
     453A      5.434147   454A      5.445068   455A      5.485647  
     456A      5.525234   457A      5.574967   458A      5.579469  
     459A      5.604442   460A      5.613253   461A      5.621352  
     462A      5.623808   463A      5.640338   464A      5.645548  
     465A      5.671939   466A      5.702410   467A      5.715914  
     468A      5.759730   469A      5.764344   470A      5.810288  
     471A      5.828084   472A      5.850159   473A      5.886928  
     474A      5.906365   475A      5.907422   476A      5.941288  
     477A      5.963804   478A      5.969338   479A      5.990324  
     480A      6.015602   481A      6.061334   482A      6.117899  
     483A      6.134805   484A      6.196207   485A      6.202572  
     486A      6.246098   487A      6.256090   488A      6.320278  
     489A      6.349048   490A      6.363393   491A      6.392544  
     492A      6.427689   493A      6.448930   494A      6.493508  
     495A      6.503761   496A      6.519317   497A      6.528343  
     498A      6.596300   499A      6.613350   500A      6.619644  
     501A      6.757688   502A      6.803000   503A      6.900615  
     504A      6.980023   505A      7.004023   506A      7.249907  
     507A      7.294176   508A      7.301437   509A      7.310099  
     510A      7.444332   511A      7.493681   512A      7.562032  
     513A      7.594079   514A      7.633649   515A      7.643930  
     516A      7.692177   517A      7.703784   518A      7.726325  
     519A      7.812340   520A      7.821893   521A      7.866550  
     522A      7.907218   523A      8.057449   524A      8.234293  
     525A      8.513503   526A      9.579375   527A      9.929582  
     528A      9.935878   529A     12.608672   530A     13.945707  
     531A     14.330443   532A     14.464031   533A     14.585756  
     534A     44.412228   535A     45.468753   536A     45.904746  

    Final Occupation by Irrep:
              A 
    DOCC [    20 ]

  @DF-RHF Final Energy:  -231.07198057469577

   => Energetics <=

    Nuclear Repulsion Energy =            172.3830010557276182
    One-Electron Energy =                -654.6057539573876056
    Two-Electron Energy =                 251.1507723269642156
    Total Energy =                       -231.0719805746957718

Computation Completed


Properties will be evaluated at   0.000000,   0.000000,   0.000000 [a0]

Properties computed using the SCF density matrix

  Nuclear Dipole Moment: [e a0]
     X:  -104.9011      Y:    21.4639      Z:     1.4187

  Electronic Dipole Moment: [e a0]
     X:   104.5810      Y:   -21.9773      Z:    -0.3603

  Dipole Moment: [e a0]
     X:    -0.3201      Y:    -0.5134      Z:     1.0584     Total:     1.2191

  Dipole Moment: [D]
     X:    -0.8137      Y:    -1.3050      Z:     2.6901     Total:     3.0986


*** tstop() called on r282 at Fri Sep 10 12:30:30 2021
Module time:
	user time   =      52.81 seconds =       0.88 minutes
	system time =       0.82 seconds =       0.01 minutes
	total time  =         53 seconds =       0.88 minutes
Total time:
	user time   =     142.44 seconds =       2.37 minutes
	system time =       2.53 seconds =       0.04 minutes
	total time  =        145 seconds =       2.42 minutes

  //>>>>>>>>>>>>>>>>>>>>>>>>>>>>>>>>>>>//
  //            Monomer B HF           //
  //<<<<<<<<<<<<<<<<<<<<<<<<<<<<<<<<<<<//


*** tstart() called on r282
*** at Fri Sep 10 12:30:30 2021

   => Loading Basis Set <=

    Name: JUN-CC-PVTZ
    Role: ORBITAL
    Keyword: BASIS
    atoms 1, 5, 7-9, 11-13, 17-24 entry H          line    36 file /home/r08543048/miniconda3/share/psi4/basis/jun-cc-pvtz.gbs 
    atoms 2-3, 6, 10, 14-16       entry C          line   217 file /home/r08543048/miniconda3/share/psi4/basis/jun-cc-pvtz.gbs 
    atoms 4                       entry O          line   305 file /home/r08543048/miniconda3/share/psi4/basis/jun-cc-pvtz.gbs 


         ---------------------------------------------------------
                                   SCF
               by Justin Turney, Rob Parrish, Andy Simmonett
                          and Daniel G. A. Smith
                              RHF Reference
                        1 Threads,  20980 MiB Core
         ---------------------------------------------------------

  ==> Geometry <==

    Molecular point group: c1
    Full point group: C1

    Geometry (in Angstrom), charge = 0, multiplicity = 1:

       Center              X                  Y                   Z               Mass       
    ------------   -----------------  -----------------  -----------------  -----------------
      Gh(H)          -0.423243363572     2.409684161168     1.113572859302     1.007825032230
      Gh(C)          -1.359077363572     0.436478161168     0.748305859302    12.000000000000
      Gh(C)          -0.709175363572     1.714169161168     0.302261859302    12.000000000000
      Gh(O)          -0.490329363572     2.006641161168    -0.857829140698    15.994914619570
      Gh(H)          -2.224230363572     0.711706161168     1.362824859302     1.007825032230
      Gh(C)          -1.759505363572    -0.494983838832    -0.381839140698    12.000000000000
      Gh(H)          -2.453338363572     0.025364161168    -1.043622140698     1.007825032230
      Gh(H)          -0.879899363572    -0.724885838832    -0.984102140698     1.007825032230
      Gh(H)          -0.663374363572    -0.053151838832     1.440175859302     1.007825032230
      Gh(C)          -2.388324363572    -1.778597838832     0.144353859302    12.000000000000
      Gh(H)          -1.690390363572    -2.320806838832     0.783916859302     1.007825032230
      Gh(H)          -3.281255363572    -1.564506838832     0.733201859302     1.007825032230
      Gh(H)          -2.676436363572    -2.440725838832    -0.671106140698     1.007825032230
         C            1.783711636428    -1.822561838832    -0.089282140698    12.000000000000
         C            2.195276636428    -0.421515838832    -0.525228140698    12.000000000000
         C            2.613817636428     0.443872161168     0.656840859302    12.000000000000
         H            2.608329636428    -2.330611838832     0.413025859302     1.007825032230
         H            0.947449636428    -1.782270838832     0.611420859302     1.007825032230
         H            1.478010636428    -2.435885838832    -0.936949140698     1.007825032230
         H            1.373205636428     0.060682161168    -1.057464140698     1.007825032230
         H            3.022230636428    -0.489609838832    -1.234884140698     1.007825032230
         H            2.881143636428     1.452058161168     0.341620859302     1.007825032230
         H            1.805371636428     0.524546161168     1.386363859302     1.007825032230
         H            3.472727636428     0.010060161168     1.171118859302     1.007825032230

  Running in c1 symmetry.

  Rotational constants: A =      0.06205  B =      0.03826  C =      0.02722 [cm^-1]
  Rotational constants: A =   1860.16158  B =   1147.01572  C =    815.95030 [MHz]
  Nuclear repulsion =   82.804281566033652

  Charge       = 0
  Multiplicity = 1
  Electrons    = 26
  Nalpha       = 13
  Nbeta        = 13

  ==> Algorithm <==

  SCF Algorithm Type is DF.
  DIIS enabled.
  MOM disabled.
  Fractional occupation disabled.
  Guess Type is SAD.
  Energy threshold   = 1.00e-08
  Density threshold  = 1.00e-08
  Integral threshold = 0.00e+00

  ==> Primary Basis <==

  Basis Set: JUN-CC-PVTZ
    Blend: JUN-CC-PVTZ
    Number of shells: 200
    Number of basis function: 536
    Number of Cartesian functions: 600
    Spherical Harmonics?: true
    Max angular momentum: 3

   => Loading Basis Set <=

    Name: (JUN-CC-PVTZ AUX)
    Role: JKFIT
    Keyword: DF_BASIS_SCF
    atoms 1, 5, 7-9, 11-13, 17-24 entry H          line    70 file /home/r08543048/miniconda3/share/psi4/basis/jun-cc-pvtz-jkfit.gbs 
    atoms 2-3, 6, 10, 14-16       entry C          line   152 file /home/r08543048/miniconda3/share/psi4/basis/jun-cc-pvtz-jkfit.gbs 
    atoms 4                       entry O          line   272 file /home/r08543048/miniconda3/share/psi4/basis/jun-cc-pvtz-jkfit.gbs 

  ==> Pre-Iterations <==

   -------------------------------------------------------
    Irrep   Nso     Nmo     Nalpha   Nbeta   Ndocc  Nsocc
   -------------------------------------------------------
     A        536     536       0       0       0       0
   -------------------------------------------------------
    Total     536     536      13      13      13       0
   -------------------------------------------------------

  ==> Integral Setup <==

  ==> DiskDFJK: Density-Fitted J/K Matrices <==

    J tasked:                  Yes
    K tasked:                  Yes
    wK tasked:                  No
    OpenMP threads:              1
    Integrals threads:           1
    Memory [MiB]:            15735
    Algorithm:                Core
    Integral Cache:           LOAD
    Schwarz Cutoff:          1E-12
    Fitting Condition:       1E-10

   => Auxiliary Basis Set <=

  Basis Set: (JUN-CC-PVTZ AUX)
    Blend: JUN-CC-PVTZ-JKFIT
    Number of shells: 392
    Number of basis function: 1240
    Number of Cartesian functions: 1488
    Spherical Harmonics?: true
    Max angular momentum: 4

  Minimum eigenvalue in the overlap matrix is 3.3533966283E-05.
  Using Symmetric Orthogonalization.

  SCF Guess: Superposition of Atomic Densities via on-the-fly atomic UHF.

  ==> Iterations <==

                           Total Energy        Delta E     RMS |[F,P]|

   @DF-RHF iter SAD:  -117.72441394581739   -1.17724e+02   0.00000e+00 
   @DF-RHF iter   1:  -118.14642760632073   -4.22014e-01   9.61251e-04 DIIS
   @DF-RHF iter   2:  -118.27574950910019   -1.29322e-01   4.54891e-04 DIIS
   @DF-RHF iter   3:  -118.30616796521892   -3.04185e-02   7.64121e-05 DIIS
   @DF-RHF iter   4:  -118.30802003389189   -1.85207e-03   1.50450e-05 DIIS
   @DF-RHF iter   5:  -118.30807819692558   -5.81630e-05   4.23273e-06 DIIS
   @DF-RHF iter   6:  -118.30808279722405   -4.60030e-06   7.59978e-07 DIIS
   @DF-RHF iter   7:  -118.30808296763941   -1.70415e-07   1.43094e-07 DIIS
   @DF-RHF iter   8:  -118.30808297507943   -7.44002e-09   2.50041e-08 DIIS
   @DF-RHF iter   9:  -118.30808297530996   -2.30528e-10   4.91481e-09 DIIS
  Energy and wave function converged.


  ==> Post-Iterations <==

    Orbital Energies [Eh]
    ---------------------

    Doubly Occupied:                                                      

       1A    -11.215666     2A    -11.208029     3A    -11.207831  
       4A     -1.053921     5A     -0.924729     6A     -0.800099  
       7A     -0.624281     8A     -0.598225     9A     -0.549777  
      10A     -0.529602    11A     -0.476185    12A     -0.474736  
      13A     -0.467762  

    Virtual:                                                              

      14A      0.030407    15A      0.043180    16A      0.050317  
      17A      0.056997    18A      0.066802    19A      0.070481  
      20A      0.072943    21A      0.083420    22A      0.084842  
      23A      0.101822    24A      0.106850    25A      0.108349  
      26A      0.113680    27A      0.114875    28A      0.118698  
      29A      0.120859    30A      0.126544    31A      0.141832  
      32A      0.145372    33A      0.147390    34A      0.155330  
      35A      0.157503    36A      0.170100    37A      0.171325  
      38A      0.177388    39A      0.180550    40A      0.197906  
      41A      0.205624    42A      0.214258    43A      0.223555  
      44A      0.235733    45A      0.247537    46A      0.252970  
      47A      0.264928    48A      0.271982    49A      0.276944  
      50A      0.287074    51A      0.288726    52A      0.302452  
      53A      0.306446    54A      0.316289    55A      0.319678  
      56A      0.323398    57A      0.324014    58A      0.331456  
      59A      0.336698    60A      0.343410    61A      0.353021  
      62A      0.355185    63A      0.358332    64A      0.361921  
      65A      0.369563    66A      0.372402    67A      0.375335  
      68A      0.385173    69A      0.390833    70A      0.393168  
      71A      0.400381    72A      0.409611    73A      0.418858  
      74A      0.426977    75A      0.433300    76A      0.444079  
      77A      0.446514    78A      0.450323    79A      0.467870  
      80A      0.480042    81A      0.484309    82A      0.486999  
      83A      0.492605    84A      0.504577    85A      0.518810  
      86A      0.524795    87A      0.530173    88A      0.535715  
      89A      0.538649    90A      0.546372    91A      0.549212  
      92A      0.558863    93A      0.568693    94A      0.573542  
      95A      0.592624    96A      0.596834    97A      0.603383  
      98A      0.611862    99A      0.614058   100A      0.626011  
     101A      0.629864   102A      0.640106   103A      0.641417  
     104A      0.652415   105A      0.664273   106A      0.670565  
     107A      0.674640   108A      0.689209   109A      0.703293  
     110A      0.705938   111A      0.717937   112A      0.730893  
     113A      0.739752   114A      0.751635   115A      0.758437  
     116A      0.773558   117A      0.783678   118A      0.791850  
     119A      0.796717   120A      0.806213   121A      0.808531  
     122A      0.820637   123A      0.831519   124A      0.838085  
     125A      0.858368   126A      0.875614   127A      0.877523  
     128A      0.883569   129A      0.901349   130A      0.909206  
     131A      0.913699   132A      0.919718   133A      0.940303  
     134A      0.963347   135A      0.977530   136A      0.983600  
     137A      0.996936   138A      1.014584   139A      1.018943  
     140A      1.031335   141A      1.051284   142A      1.068999  
     143A      1.082941   144A      1.092540   145A      1.095857  
     146A      1.110705   147A      1.122485   148A      1.133744  
     149A      1.149886   150A      1.155315   151A      1.159881  
     152A      1.173113   153A      1.188105   154A      1.193373  
     155A      1.210081   156A      1.221803   157A      1.226661  
     158A      1.257035   159A      1.259032   160A      1.268741  
     161A      1.279583   162A      1.283779   163A      1.285700  
     164A      1.302934   165A      1.325295   166A      1.326926  
     167A      1.340197   168A      1.353557   169A      1.355803  
     170A      1.358913   171A      1.370626   172A      1.375880  
     173A      1.398858   174A      1.401066   175A      1.405174  
     176A      1.410328   177A      1.414154   178A      1.423906  
     179A      1.441080   180A      1.447957   181A      1.462202  
     182A      1.470023   183A      1.472668   184A      1.483984  
     185A      1.496502   186A      1.506882   187A      1.516257  
     188A      1.528669   189A      1.541151   190A      1.543484  
     191A      1.556253   192A      1.566809   193A      1.573060  
     194A      1.580585   195A      1.583335   196A      1.593982  
     197A      1.597058   198A      1.606393   199A      1.619779  
     200A      1.631910   201A      1.639927   202A      1.650820  
     203A      1.664055   204A      1.670213   205A      1.678325  
     206A      1.688790   207A      1.696126   208A      1.701295  
     209A      1.716702   210A      1.728354   211A      1.735929  
     212A      1.741781   213A      1.783444   214A      1.798399  
     215A      1.807162   216A      1.828291   217A      1.850089  
     218A      1.859408   219A      1.876935   220A      1.877871  
     221A      1.907668   222A      1.939438   223A      1.942179  
     224A      1.951322   225A      1.960592   226A      1.965802  
     227A      1.975578   228A      1.990287   229A      1.998649  
     230A      2.004008   231A      2.037200   232A      2.061309  
     233A      2.123560   234A      2.126988   235A      2.171683  
     236A      2.179043   237A      2.196989   238A      2.216676  
     239A      2.268607   240A      2.318800   241A      2.333981  
     242A      2.394958   243A      2.444475   244A      2.455815  
     245A      2.462665   246A      2.507858   247A      2.595523  
     248A      2.635981   249A      2.641789   250A      2.675461  
     251A      2.703576   252A      2.757000   253A      2.770137  
     254A      2.803697   255A      2.821370   256A      2.830824  
     257A      2.852362   258A      2.860209   259A      2.898500  
     260A      2.908187   261A      2.924161   262A      2.940422  
     263A      2.956902   264A      2.985411   265A      3.002785  
     266A      3.030084   267A      3.045902   268A      3.059443  
     269A      3.101668   270A      3.134315   271A      3.144109  
     272A      3.177392   273A      3.191294   274A      3.216907  
     275A      3.221561   276A      3.249452   277A      3.273473  
     278A      3.297427   279A      3.327356   280A      3.330155  
     281A      3.339827   282A      3.377785   283A      3.385907  
     284A      3.395174   285A      3.426292   286A      3.450780  
     287A      3.475880   288A      3.490843   289A      3.495802  
     290A      3.507712   291A      3.509914   292A      3.523365  
     293A      3.538119   294A      3.541297   295A      3.549255  
     296A      3.557728   297A      3.561065   298A      3.580334  
     299A      3.588635   300A      3.606406   301A      3.611071  
     302A      3.629415   303A      3.645288   304A      3.655673  
     305A      3.662065   306A      3.677294   307A      3.679630  
     308A      3.722861   309A      3.736001   310A      3.766207  
     311A      3.776060   312A      3.786188   313A      3.788905  
     314A      3.799760   315A      3.819876   316A      3.827040  
     317A      3.830622   318A      3.847770   319A      3.858498  
     320A      3.863378   321A      3.868235   322A      3.877937  
     323A      3.889625   324A      3.904322   325A      3.914975  
     326A      3.925488   327A      3.930041   328A      3.941790  
     329A      3.954414   330A      3.966505   331A      3.969880  
     332A      3.979623   333A      4.000097   334A      4.014074  
     335A      4.029795   336A      4.050313   337A      4.076050  
     338A      4.099788   339A      4.120483   340A      4.128249  
     341A      4.135175   342A      4.164672   343A      4.174812  
     344A      4.193004   345A      4.217205   346A      4.232425  
     347A      4.238615   348A      4.246939   349A      4.255289  
     350A      4.271152   351A      4.314575   352A      4.319186  
     353A      4.324961   354A      4.337689   355A      4.347170  
     356A      4.369006   357A      4.374186   358A      4.382425  
     359A      4.394763   360A      4.411951   361A      4.420550  
     362A      4.441464   363A      4.452934   364A      4.471664  
     365A      4.487041   366A      4.487987   367A      4.500674  
     368A      4.508825   369A      4.516658   370A      4.530800  
     371A      4.534090   372A      4.542986   373A      4.547486  
     374A      4.563694   375A      4.567955   376A      4.581736  
     377A      4.585120   378A      4.592290   379A      4.600227  
     380A      4.619242   381A      4.625847   382A      4.636914  
     383A      4.644114   384A      4.663078   385A      4.671221  
     386A      4.680922   387A      4.696128   388A      4.704018  
     389A      4.710545   390A      4.724934   391A      4.731874  
     392A      4.751837   393A      4.763296   394A      4.769831  
     395A      4.773805   396A      4.798896   397A      4.806193  
     398A      4.824513   399A      4.835584   400A      4.840751  
     401A      4.856140   402A      4.863157   403A      4.873782  
     404A      4.885814   405A      4.893262   406A      4.901306  
     407A      4.908576   408A      4.924390   409A      4.927322  
     410A      4.941652   411A      4.945539   412A      4.968143  
     413A      4.978404   414A      4.986957   415A      4.993276  
     416A      5.009178   417A      5.020407   418A      5.025138  
     419A      5.041696   420A      5.062408   421A      5.088279  
     422A      5.097916   423A      5.112260   424A      5.130548  
     425A      5.137502   426A      5.161761   427A      5.186718  
     428A      5.204602   429A      5.210337   430A      5.231788  
     431A      5.237298   432A      5.277351   433A      5.282617  
     434A      5.294942   435A      5.310722   436A      5.334460  
     437A      5.343063   438A      5.358889   439A      5.400696  
     440A      5.423869   441A      5.432263   442A      5.447373  
     443A      5.453337   444A      5.490110   445A      5.512097  
     446A      5.525877   447A      5.578936   448A      5.586725  
     449A      5.603088   450A      5.615968   451A      5.656203  
     452A      5.665057   453A      5.722424   454A      5.730210  
     455A      5.756707   456A      5.771665   457A      5.781129  
     458A      5.796983   459A      5.798386   460A      5.812512  
     461A      5.825816   462A      5.834823   463A      5.874051  
     464A      5.895693   465A      5.929568   466A      5.938927  
     467A      5.965564   468A      6.000351   469A      6.013449  
     470A      6.030078   471A      6.054250   472A      6.127316  
     473A      6.143904   474A      6.167923   475A      6.237349  
     476A      6.251810   477A      6.291969   478A      6.356159  
     479A      6.396164   480A      6.430832   481A      6.467023  
     482A      6.477970   483A      6.505078   484A      6.516217  
     485A      6.520244   486A      6.542197   487A      6.549522  
     488A      6.563369   489A      6.617685   490A      6.640833  
     491A      6.657512   492A      6.666884   493A      6.793260  
     494A      6.900913   495A      6.977212   496A      7.019083  
     497A      7.029144   498A      7.304798   499A      7.340115  
     500A      7.542725   501A      7.565701   502A      7.646701  
     503A      7.666044   504A      7.699469   505A      7.714638  
     506A      7.798154   507A      7.837596   508A      7.880126  
     509A      7.925944   510A      8.121562   511A      8.221190  
     512A      8.278392   513A      8.391455   514A      8.520969  
     515A      8.661831   516A      9.488457   517A      9.501232  
     518A      9.660062   519A      9.748685   520A      9.841823  
     521A      9.873923   522A      9.914899   523A      9.934846  
     524A     10.085558   525A     11.041453   526A     11.693969  
     527A     11.989565   528A     13.753879   529A     13.886913  
     530A     14.561731   531A     14.740150   532A     43.904773  
     533A     44.423718   534A     45.608801   535A     45.730960  
     536A     60.946396  

    Final Occupation by Irrep:
              A 
    DOCC [    13 ]

  @DF-RHF Final Energy:  -118.30808297530996

   => Energetics <=

    Nuclear Repulsion Energy =             82.8042815660336515
    One-Electron Energy =                -321.9630409622824345
    Two-Electron Energy =                 120.8506764209388393
    Total Energy =                       -118.3080829753099579

Computation Completed


Properties will be evaluated at   0.000000,   0.000000,   0.000000 [a0]

Properties computed using the SCF density matrix

  Nuclear Dipole Moment: [e a0]
     X:   107.9890      Y:   -29.8431      Z:     1.7919

  Electronic Dipole Moment: [e a0]
     X:  -107.9883      Y:    29.8530      Z:    -1.8235

  Dipole Moment: [e a0]
     X:     0.0006      Y:     0.0099      Z:    -0.0316     Total:     0.0331

  Dipole Moment: [D]
     X:     0.0016      Y:     0.0252      Z:    -0.0802     Total:     0.0841


*** tstop() called on r282 at Fri Sep 10 12:31:14 2021
Module time:
	user time   =      42.48 seconds =       0.71 minutes
	system time =       0.70 seconds =       0.01 minutes
	total time  =         44 seconds =       0.73 minutes
Total time:
	user time   =     184.92 seconds =       3.08 minutes
	system time =       3.23 seconds =       0.05 minutes
	total time  =        189 seconds =       3.15 minutes
  Constructing Basis Sets for SAPT...

   => Loading Basis Set <=

    Name: (JUN-CC-PVTZ AUX)
    Role: RIFIT
    Keyword: DF_BASIS_SAPT
    atoms 1, 5, 7-9, 11-13, 17-24 entry H          line    30 file /home/r08543048/miniconda3/share/psi4/basis/jun-cc-pvtz-ri.gbs 
    atoms 2-3, 6, 10, 14-16       entry C          line   132 file /home/r08543048/miniconda3/share/psi4/basis/jun-cc-pvtz-ri.gbs 
    atoms 4                       entry O          line   244 file /home/r08543048/miniconda3/share/psi4/basis/jun-cc-pvtz-ri.gbs 


  //>>>>>>>>>>>>>>>>>>>>>>>>>>>>>>>>>>>//
  //               SAPT0               //
  //<<<<<<<<<<<<<<<<<<<<<<<<<<<<<<<<<<<//


*** tstart() called on r282
*** at Fri Sep 10 12:31:14 2021

        SAPT0  
    Ed Hohenstein
     6 June 2009

      Orbital Information
  --------------------------
    NSO        =       536
    NMO        =       536
    NRI        =      1256
    NOCC A     =        20
    NOCC B     =        13
    FOCC A     =         0
    FOCC B     =         0
    NVIR A     =       516
    NVIR B     =       523

    Elst10,r            =    -0.002156929757 [Eh]
    Exch10              =     0.006629960080 [Eh]
    Exch10 (S^2)        =     0.006618423655 [Eh]

    Iter     Energy [mEh]          dE [mEh]         Residual      Time [s]
       1      -0.37428352       0.374283520       2.480116524             1
       2      -0.45328277       0.078999249       0.463479938             3
       3      -0.45319486      -0.000087904       0.159881233             4
       4      -0.45226176      -0.000933107       0.055791495             5
       5      -0.45217279      -0.000088971       0.018718623             6
       6      -0.45228851       0.000115726       0.008605407             8
       7      -0.45228856       0.000000045       0.004991759             9
       8      -0.45226802      -0.000020534       0.001554780            10
       9      -0.45227066       0.000002639       0.000534735            11
      10      -0.45227209       0.000001428       0.000172215            12
      11      -0.45227163      -0.000000464       0.000057531            14
      12      -0.45227156      -0.000000064       0.000018652            15
      13      -0.45227162       0.000000055       0.000004914            16
      14      -0.45227161      -0.000000005       0.000001575            17
      15      -0.45227161      -0.000000003       0.000000404            18

    CHF Iterations converged


    Iter     Energy [mEh]          dE [mEh]         Residual      Time [s]
       1      -0.94039962       0.940399617       4.561288339             2
       2      -1.12435350       0.183953887       1.402265544             3
       3      -1.14185717       0.017503670       0.310092762             4
       4      -1.13809777      -0.003759403       0.099583587             5
       5      -1.13731232      -0.000785449       0.017430374             6
       6      -1.13753217       0.000219850       0.003860676             8
       7      -1.13753647       0.000004303       0.001042862             9
       8      -1.13752905      -0.000007423       0.000242962            10
       9      -1.13752902      -0.000000026       0.000058919            11
      10      -1.13752934       0.000000320       0.000014415            13
      11      -1.13752934      -0.000000004       0.000003979            15
      12      -1.13752932      -0.000000016       0.000000868            16

    CHF Iterations converged

    Ind20,r (A<-B)      =    -0.000452271610 [Eh]
    Ind20,r (B<-A)      =    -0.001137529325 [Eh]
    Ind20,r             =    -0.001589800935 [Eh]
    Exch-Ind20,r (A<-B) =     0.000385278991 [Eh]
    Exch-Ind20,r (B<-A) =     0.000741496926 [Eh]
    Exch-Ind20,r        =     0.001126775917 [Eh]
    Disp20              =    -0.008806965897 [Eh]
    Disp20 (SS)         =    -0.004403482949 [Eh]
    Disp20 (OS)         =    -0.004403482949 [Eh]
    Exch-Disp20         =     0.000723784022 [Eh]
    Exch-Disp20 (SS)    =     0.000473380441 [Eh]
    Exch-Disp20 (OS)    =     0.000250403581 [Eh]

    SAPT Results 
  --------------------------------------------------------------------------------------------------------
    Electrostatics                 -2.15692976 [mEh]      -1.35349386 [kcal/mol]      -5.66301830 [kJ/mol]
      Elst10,r                     -2.15692976 [mEh]      -1.35349386 [kcal/mol]      -5.66301830 [kJ/mol]

    Exchange                        6.62996008 [mEh]       4.16036276 [kcal/mol]      17.40695779 [kJ/mol]
      Exch10                        6.62996008 [mEh]       4.16036276 [kcal/mol]      17.40695779 [kJ/mol]
      Exch10(S^2)                   6.61842366 [mEh]       4.15312355 [kcal/mol]      17.37666891 [kJ/mol]

    Induction                      -0.91401834 [mEh]      -0.57355517 [kcal/mol]      -2.39975481 [kJ/mol]
      Ind20,r                      -1.58980094 [mEh]      -0.99761515 [kcal/mol]      -4.17402178 [kJ/mol]
      Exch-Ind20,r                  1.12677592 [mEh]       0.70706256 [kcal/mol]       2.95834976 [kJ/mol]
      delta HF,r (2)               -0.45099332 [mEh]      -0.28300258 [kcal/mol]      -1.18408279 [kJ/mol]

    Dispersion                     -8.08318188 [mEh]      -5.07227321 [kcal/mol]     -21.22239109 [kJ/mol]
      Disp20                       -8.80696590 [mEh]      -5.52645454 [kcal/mol]     -23.12268578 [kJ/mol]
      Exch-Disp20                   0.72378402 [mEh]       0.45418133 [kcal/mol]       1.90029469 [kJ/mol]
      Disp20 (SS)                  -4.40348295 [mEh]      -2.76322727 [kcal/mol]     -11.56134289 [kJ/mol]
      Disp20 (OS)                  -4.40348295 [mEh]      -2.76322727 [kcal/mol]     -11.56134289 [kJ/mol]
      Exch-Disp20 (SS)              0.47338044 [mEh]       0.29705071 [kcal/mol]       1.24286018 [kJ/mol]
      Exch-Disp20 (OS)              0.25040358 [mEh]       0.15713062 [kcal/mol]       0.65743451 [kJ/mol]

  Total HF                          3.55901199 [mEh]       2.23331374 [kcal/mol]       9.34418468 [kJ/mol]
  Total SAPT0                      -4.52416989 [mEh]      -2.83895947 [kcal/mol]     -11.87820641 [kJ/mol]

  Special recipe for scaled SAPT0 (see Manual):
    Electrostatics sSAPT0          -2.15692976 [mEh]      -1.35349386 [kcal/mol]      -5.66301830 [kJ/mol]
    Exchange sSAPT0                 6.62996008 [mEh]       4.16036276 [kcal/mol]      17.40695779 [kJ/mol]
    Induction sSAPT0               -0.90811589 [mEh]      -0.56985132 [kcal/mol]      -2.38425793 [kJ/mol]
    Dispersion sSAPT0              -8.07939044 [mEh]      -5.06989404 [kcal/mol]     -21.21243668 [kJ/mol]
  Total sSAPT0                     -4.51447600 [mEh]      -2.83287646 [kcal/mol]     -11.85275512 [kJ/mol]
  --------------------------------------------------------------------------------------------------------

*** tstop() called on r282 at Fri Sep 10 12:33:45 2021
Module time:
	user time   =     129.39 seconds =       2.16 minutes
	system time =      20.56 seconds =       0.34 minutes
	total time  =        151 seconds =       2.52 minutes
Total time:
	user time   =     314.46 seconds =       5.24 minutes
	system time =      23.80 seconds =       0.40 minutes
	total time  =        340 seconds =       5.67 minutes

    Psi4 stopped on: Friday, 10 September 2021 12:33PM
    Psi4 wall time for execution: 0:05:39.87

*** Psi4 exiting successfully. Buy a developer a beer!
