
    -----------------------------------------------------------------------
          Psi4: An Open-Source Ab Initio Electronic Structure Package
                               Psi4 1.3.2 release

                         Git: Rev {HEAD} ecbda83 


    R. M. Parrish, L. A. Burns, D. G. A. Smith, A. C. Simmonett,
    A. E. DePrince III, E. G. Hohenstein, U. Bozkaya, A. Yu. Sokolov,
    R. Di Remigio, R. M. Richard, J. F. Gonthier, A. M. James,
    H. R. McAlexander, A. Kumar, M. Saitow, X. Wang, B. P. Pritchard,
    P. Verma, H. F. Schaefer III, K. Patkowski, R. A. King, E. F. Valeev,
    F. A. Evangelista, J. M. Turney, T. D. Crawford, and C. D. Sherrill,
    J. Chem. Theory Comput. 13(7) pp 3185--3197 (2017).
    (doi: 10.1021/acs.jctc.7b00174)


                         Additional Contributions by
    P. Kraus, H. Kruse, M. H. Lechner, M. C. Schieber, R. A. Shaw,
    A. Alenaizan, R. Galvelis, Z. L. Glick, S. Lehtola, and J. P. Misiewicz

    -----------------------------------------------------------------------


    Psi4 started on: Friday, 10 September 2021 12:33PM

    Process ID: 56626
    Host:       r282
    PSIDATADIR: /home/r08543048/miniconda3/share/psi4
    Memory:     500.0 MiB
    Threads:    1
    
  ==> Input File <==

--------------------------------------------------------------------------
# Any line starting with the # character is a comment line
#! Sample  computation

memory 22 gb

molecule Dimer {
0 1
 H -2.009558    0.003578   -1.518328
 C -2.212607   -0.773679    0.541935
 C -1.835732    0.272615   -0.460261
 O -1.363357    1.357102   -0.178391
 H -2.030796   -0.420764    1.553062
 H -3.264566   -1.034131    0.415007
 H -1.632483   -1.677642    0.347789
 
 
 
 
 
 


    
    
    
 --
0 1
 C  1.354520   -1.259396   -0.611909
 C  1.603982   -0.331976    0.571298
 C  2.122793    1.028590    0.123968
 H  0.638598   -0.816307   -1.306661
 H  2.277820   -1.433344   -1.166306
 H  0.968808   -2.229331   -0.295929
 H  2.320343   -0.797382    1.251592
 H  0.680229   -0.195295    1.136954
 H  2.317660    1.681316    0.974234
 H  3.051293    0.921487   -0.439032
 H  1.391772    1.524067   -0.515441
  
  
  





units angstrom

no_reorient
symmetry c1
}

set globals{
  basis jun-cc-pvtz
}

energy('sapt0')


--------------------------------------------------------------------------

  Memory set to  20.489 GiB by Python driver.

  //>>>>>>>>>>>>>>>>>>>>>>>>>>>>>>>>>>>//
  //              Dimer HF             //
  //<<<<<<<<<<<<<<<<<<<<<<<<<<<<<<<<<<<//


*** tstart() called on r282
*** at Fri Sep 10 12:33:46 2021

   => Loading Basis Set <=

    Name: JUN-CC-PVTZ
    Role: ORBITAL
    Keyword: BASIS
    atoms 1, 5-7, 11-18 entry H          line    36 file /home/r08543048/miniconda3/share/psi4/basis/jun-cc-pvtz.gbs 
    atoms 2-3, 8-10     entry C          line   217 file /home/r08543048/miniconda3/share/psi4/basis/jun-cc-pvtz.gbs 
    atoms 4             entry O          line   305 file /home/r08543048/miniconda3/share/psi4/basis/jun-cc-pvtz.gbs 


         ---------------------------------------------------------
                                   SCF
               by Justin Turney, Rob Parrish, Andy Simmonett
                          and Daniel G. A. Smith
                              RHF Reference
                        1 Threads,  20980 MiB Core
         ---------------------------------------------------------

  ==> Geometry <==

    Molecular point group: c1
    Full point group: C1

    Geometry (in Angstrom), charge = 0, multiplicity = 1:

       Center              X                  Y                   Z               Mass       
    ------------   -----------------  -----------------  -----------------  -----------------
         H           -1.956596250033    -0.046732852717    -1.513416857349     1.007825032230
         C           -2.159645250033    -0.823989852717     0.546846142651    12.000000000000
         C           -1.782770250033     0.222304147283    -0.455349857349    12.000000000000
         O           -1.310395250033     1.306791147283    -0.173479857349    15.994914619570
         H           -1.977834250033    -0.471074852717     1.557973142651     1.007825032230
         H           -3.211604250033    -1.084441852717     0.419918142651     1.007825032230
         H           -1.579521250033    -1.727952852717     0.352700142651     1.007825032230
         C            1.407481749967    -1.309706852717    -0.606997857349    12.000000000000
         C            1.656943749967    -0.382286852717     0.576209142651    12.000000000000
         C            2.175754749967     0.978279147283     0.128879142651    12.000000000000
         H            0.691559749967    -0.866617852717    -1.301749857349     1.007825032230
         H            2.330781749967    -1.483654852717    -1.161394857349     1.007825032230
         H            1.021769749967    -2.279641852717    -0.291017857349     1.007825032230
         H            2.373304749967    -0.847692852717     1.256503142651     1.007825032230
         H            0.733190749967    -0.245605852717     1.141865142651     1.007825032230
         H            2.370621749967     1.631005147283     0.979145142651     1.007825032230
         H            3.104254749967     0.871176147283    -0.434120857349     1.007825032230
         H            1.444733749967     1.473756147283    -0.510529857349     1.007825032230

  Running in c1 symmetry.

  Rotational constants: A =      0.14492  B =      0.05360  C =      0.04490 [cm^-1]
  Rotational constants: A =   4344.56542  B =   1606.98487  C =   1345.98605 [MHz]
  Nuclear repulsion =  238.050440397475143

  Charge       = 0
  Multiplicity = 1
  Electrons    = 50
  Nalpha       = 25
  Nbeta        = 25

  ==> Algorithm <==

  SCF Algorithm Type is DF.
  DIIS enabled.
  MOM disabled.
  Fractional occupation disabled.
  Guess Type is SAD.
  Energy threshold   = 1.00e-08
  Density threshold  = 1.00e-08
  Integral threshold = 0.00e+00

  ==> Primary Basis <==

  Basis Set: JUN-CC-PVTZ
    Blend: JUN-CC-PVTZ
    Number of shells: 150
    Number of basis function: 402
    Number of Cartesian functions: 450
    Spherical Harmonics?: true
    Max angular momentum: 3

   => Loading Basis Set <=

    Name: (JUN-CC-PVTZ AUX)
    Role: JKFIT
    Keyword: DF_BASIS_SCF
    atoms 1, 5-7, 11-18 entry H          line    70 file /home/r08543048/miniconda3/share/psi4/basis/jun-cc-pvtz-jkfit.gbs 
    atoms 2-3, 8-10     entry C          line   152 file /home/r08543048/miniconda3/share/psi4/basis/jun-cc-pvtz-jkfit.gbs 
    atoms 4             entry O          line   272 file /home/r08543048/miniconda3/share/psi4/basis/jun-cc-pvtz-jkfit.gbs 

  ==> Pre-Iterations <==

   -------------------------------------------------------
    Irrep   Nso     Nmo     Nalpha   Nbeta   Ndocc  Nsocc
   -------------------------------------------------------
     A        402     402       0       0       0       0
   -------------------------------------------------------
    Total     402     402      25      25      25       0
   -------------------------------------------------------

  ==> Integral Setup <==

  ==> DiskDFJK: Density-Fitted J/K Matrices <==

    J tasked:                  Yes
    K tasked:                  Yes
    wK tasked:                  No
    OpenMP threads:              1
    Integrals threads:           1
    Memory [MiB]:            15735
    Algorithm:                Core
    Integral Cache:           SAVE
    Schwarz Cutoff:          1E-12
    Fitting Condition:       1E-10

   => Auxiliary Basis Set <=

  Basis Set: (JUN-CC-PVTZ AUX)
    Blend: JUN-CC-PVTZ-JKFIT
    Number of shells: 294
    Number of basis function: 930
    Number of Cartesian functions: 1116
    Spherical Harmonics?: true
    Max angular momentum: 4

  Minimum eigenvalue in the overlap matrix is 8.3208368700E-05.
  Using Symmetric Orthogonalization.

  SCF Guess: Superposition of Atomic Densities via on-the-fly atomic UHF.

  ==> Iterations <==

                           Total Energy        Delta E     RMS |[F,P]|

   @DF-RHF iter SAD:  -269.96578852207585   -2.69966e+02   0.00000e+00 
   @DF-RHF iter   1:  -271.00031720959760   -1.03453e+00   1.75796e-03 DIIS
   @DF-RHF iter   2:  -271.20960230115361   -2.09285e-01   1.02028e-03 DIIS
   @DF-RHF iter   3:  -271.27627852044304   -6.66762e-02   2.10289e-04 DIIS
   @DF-RHF iter   4:  -271.28056060390594   -4.28208e-03   9.39638e-05 DIIS
   @DF-RHF iter   5:  -271.28142766655077   -8.67063e-04   1.45225e-05 DIIS
   @DF-RHF iter   6:  -271.28146898836491   -4.13218e-05   5.86980e-06 DIIS
   @DF-RHF iter   7:  -271.28147484928121   -5.86092e-06   2.47745e-06 DIIS
   @DF-RHF iter   8:  -271.28147615021942   -1.30094e-06   8.54579e-07 DIIS
   @DF-RHF iter   9:  -271.28147634350046   -1.93281e-07   1.72079e-07 DIIS
   @DF-RHF iter  10:  -271.28147635183797   -8.33751e-09   4.86840e-08 DIIS
   @DF-RHF iter  11:  -271.28147635237389   -5.35920e-10   1.72860e-08 DIIS
   @DF-RHF iter  12:  -271.28147635247382   -9.99307e-11   8.79711e-09 DIIS
  Energy and wave function converged.


  ==> Post-Iterations <==

    Orbital Energies [Eh]
    ---------------------

    Doubly Occupied:                                                      

       1A    -20.560558     2A    -11.338528     3A    -11.242476  
       4A    -11.211583     5A    -11.210306     6A    -11.197659  
       7A     -1.391364     8A     -1.050920     9A     -1.025450  
      10A     -0.921293    11A     -0.805074    12A     -0.796013  
      13A     -0.676063    14A     -0.630158    15A     -0.623748  
      16A     -0.602086    17A     -0.594314    18A     -0.563671  
      19A     -0.545816    20A     -0.526582    21A     -0.504124  
      22A     -0.471299    23A     -0.470822    24A     -0.464172  
      25A     -0.428948  

    Virtual:                                                              

      26A      0.046088    27A      0.052592    28A      0.060036  
      29A      0.062607    30A      0.073054    31A      0.084982  
      32A      0.087905    33A      0.094847    34A      0.098207  
      35A      0.110681    36A      0.117997    37A      0.120322  
      38A      0.123218    39A      0.133518    40A      0.140749  
      41A      0.143823    42A      0.157932    43A      0.176311  
      44A      0.182352    45A      0.201868    46A      0.213399  
      47A      0.221718    48A      0.236753    49A      0.250103  
      50A      0.256946    51A      0.267322    52A      0.271335  
      53A      0.277993    54A      0.282832    55A      0.294444  
      56A      0.299825    57A      0.311756    58A      0.313797  
      59A      0.322779    60A      0.325896    61A      0.328570  
      62A      0.342995    63A      0.345601    64A      0.352220  
      65A      0.357246    66A      0.364081    67A      0.366151  
      68A      0.373502    69A      0.381982    70A      0.394861  
      71A      0.400145    72A      0.413682    73A      0.428450  
      74A      0.431413    75A      0.442332    76A      0.444295  
      77A      0.450054    78A      0.455029    79A      0.487979  
      80A      0.491808    81A      0.502368    82A      0.517291  
      83A      0.519191    84A      0.528567    85A      0.541038  
      86A      0.554023    87A      0.560957    88A      0.569749  
      89A      0.584603    90A      0.586677    91A      0.628905  
      92A      0.642322    93A      0.654115    94A      0.673535  
      95A      0.678496    96A      0.682421    97A      0.700821  
      98A      0.709517    99A      0.732825   100A      0.734674  
     101A      0.744316   102A      0.750280   103A      0.773866  
     104A      0.776491   105A      0.787066   106A      0.788969  
     107A      0.804501   108A      0.807842   109A      0.810098  
     110A      0.817943   111A      0.826865   112A      0.840344  
     113A      0.848106   114A      0.859481   115A      0.878460  
     116A      0.887358   117A      0.889501   118A      0.908743  
     119A      0.925074   120A      0.937376   121A      0.947261  
     122A      0.955553   123A      0.963093   124A      0.982436  
     125A      0.997238   126A      1.002045   127A      1.018387  
     128A      1.042176   129A      1.048121   130A      1.084133  
     131A      1.101353   132A      1.104660   133A      1.115528  
     134A      1.151981   135A      1.170131   136A      1.188118  
     137A      1.195429   138A      1.225038   139A      1.234347  
     140A      1.261842   141A      1.283560   142A      1.297195  
     143A      1.310565   144A      1.325790   145A      1.335247  
     146A      1.344538   147A      1.353243   148A      1.362401  
     149A      1.373502   150A      1.391991   151A      1.394614  
     152A      1.414913   153A      1.416079   154A      1.436214  
     155A      1.459259   156A      1.463950   157A      1.470411  
     158A      1.486727   159A      1.499913   160A      1.524554  
     161A      1.529289   162A      1.536493   163A      1.550659  
     164A      1.562084   165A      1.574776   166A      1.587332  
     167A      1.598652   168A      1.612998   169A      1.623320  
     170A      1.643950   171A      1.652646   172A      1.653715  
     173A      1.672436   174A      1.684150   175A      1.692419  
     176A      1.720711   177A      1.736869   178A      1.755243  
     179A      1.762938   180A      1.805102   181A      1.820386  
     182A      1.840303   183A      1.848408   184A      1.870826  
     185A      1.874756   186A      1.904364   187A      1.944779  
     188A      1.955564   189A      1.968473   190A      1.977079  
     191A      1.988124   192A      2.083080   193A      2.292632  
     194A      2.371450   195A      2.397154   196A      2.440999  
     197A      2.529284   198A      2.661156   199A      2.698467  
     200A      2.713946   201A      2.747241   202A      2.752782  
     203A      2.779659   204A      2.788151   205A      2.801282  
     206A      2.845920   207A      2.855843   208A      2.871506  
     209A      2.907770   210A      2.922817   211A      2.939109  
     212A      2.944320   213A      2.958106   214A      2.969307  
     215A      3.000731   216A      3.024691   217A      3.039413  
     218A      3.043905   219A      3.073429   220A      3.087784  
     221A      3.120851   222A      3.124195   223A      3.138910  
     224A      3.161844   225A      3.168271   226A      3.185122  
     227A      3.199622   228A      3.205620   229A      3.241801  
     230A      3.258418   231A      3.273144   232A      3.288165  
     233A      3.299053   234A      3.318782   235A      3.333955  
     236A      3.341274   237A      3.349500   238A      3.369663  
     239A      3.373963   240A      3.386654   241A      3.396510  
     242A      3.409380   243A      3.430971   244A      3.434070  
     245A      3.455657   246A      3.475993   247A      3.483919  
     248A      3.491308   249A      3.508341   250A      3.515770  
     251A      3.522854   252A      3.536574   253A      3.549453  
     254A      3.559003   255A      3.570920   256A      3.577626  
     257A      3.602612   258A      3.608089   259A      3.636173  
     260A      3.650223   261A      3.667916   262A      3.680304  
     263A      3.698252   264A      3.721825   265A      3.730134  
     266A      3.764624   267A      3.781059   268A      3.791562  
     269A      3.795820   270A      3.798597   271A      3.812033  
     272A      3.824446   273A      3.847300   274A      3.858938  
     275A      3.876905   276A      3.880175   277A      3.890854  
     278A      3.933179   279A      3.945309   280A      3.958188  
     281A      3.968669   282A      3.977484   283A      3.981277  
     284A      4.032087   285A      4.085763   286A      4.103742  
     287A      4.123764   288A      4.177238   289A      4.180157  
     290A      4.200796   291A      4.205914   292A      4.220349  
     293A      4.237479   294A      4.255408   295A      4.262253  
     296A      4.290771   297A      4.306728   298A      4.318872  
     299A      4.329762   300A      4.340208   301A      4.349270  
     302A      4.363251   303A      4.375892   304A      4.380593  
     305A      4.412160   306A      4.413478   307A      4.435731  
     308A      4.442680   309A      4.474128   310A      4.483833  
     311A      4.500827   312A      4.514523   313A      4.531497  
     314A      4.541905   315A      4.551258   316A      4.568668  
     317A      4.581328   318A      4.592239   319A      4.609691  
     320A      4.637637   321A      4.666934   322A      4.693821  
     323A      4.706798   324A      4.719838   325A      4.742981  
     326A      4.791404   327A      4.798198   328A      4.801428  
     329A      4.823096   330A      4.834234   331A      4.863073  
     332A      4.890563   333A      4.937338   334A      4.999323  
     335A      5.001614   336A      5.024687   337A      5.042303  
     338A      5.067307   339A      5.139684   340A      5.158392  
     341A      5.173026   342A      5.178860   343A      5.203764  
     344A      5.238989   345A      5.270009   346A      5.279259  
     347A      5.287395   348A      5.303342   349A      5.329722  
     350A      5.352210   351A      5.399583   352A      5.427905  
     353A      5.459114   354A      5.460743   355A      5.483473  
     356A      5.518236   357A      5.542902   358A      5.577337  
     359A      5.588805   360A      5.612661   361A      5.638319  
     362A      5.679421   363A      5.701628   364A      5.715158  
     365A      5.730974   366A      5.750342   367A      5.762030  
     368A      5.784122   369A      5.799378   370A      5.811342  
     371A      5.815205   372A      5.825291   373A      5.868310  
     374A      5.928813   375A      5.935054   376A      5.959496  
     377A      5.988543   378A      6.072948   379A      6.102323  
     380A      6.120647   381A      6.307825   382A      6.424752  
     383A      6.438239   384A      6.474919   385A      6.521914  
     386A      6.524164   387A      6.558634   388A      6.597415  
     389A      6.793095   390A      6.930077   391A      7.222075  
     392A      7.265024   393A      7.301380   394A      7.466388  
     395A      7.601482   396A      7.698068   397A     12.424620  
     398A     13.856139   399A     14.114490   400A     14.441641  
     401A     14.601182   402A     14.679681  

    Final Occupation by Irrep:
              A 
    DOCC [    25 ]

  @DF-RHF Final Energy:  -271.28147635247382

   => Energetics <=

    Nuclear Repulsion Energy =            238.0504403974751426
    One-Electron Energy =                -838.9577764544775391
    Two-Electron Energy =                 329.6258597045285228
    Total Energy =                       -271.2814763524738169

Computation Completed


Properties will be evaluated at   0.000000,   0.000000,   0.000000 [a0]

Properties computed using the SCF density matrix

  Nuclear Dipole Moment: [e a0]
     X:     5.0042      Y:    -4.7537      Z:     0.4640

  Electronic Dipole Moment: [e a0]
     X:    -5.5241      Y:     3.6473      Z:    -0.5487

  Dipole Moment: [e a0]
     X:    -0.5199      Y:    -1.1064      Z:    -0.0847     Total:     1.2254

  Dipole Moment: [D]
     X:    -1.3214      Y:    -2.8121      Z:    -0.2153     Total:     3.1146


*** tstop() called on r282 at Fri Sep 10 12:34:14 2021
Module time:
	user time   =      26.98 seconds =       0.45 minutes
	system time =       0.78 seconds =       0.01 minutes
	total time  =         28 seconds =       0.47 minutes
Total time:
	user time   =      26.98 seconds =       0.45 minutes
	system time =       0.78 seconds =       0.01 minutes
	total time  =         28 seconds =       0.47 minutes

  //>>>>>>>>>>>>>>>>>>>>>>>>>>>>>>>>>>>//
  //            Monomer A HF           //
  //<<<<<<<<<<<<<<<<<<<<<<<<<<<<<<<<<<<//


*** tstart() called on r282
*** at Fri Sep 10 12:34:14 2021

   => Loading Basis Set <=

    Name: JUN-CC-PVTZ
    Role: ORBITAL
    Keyword: BASIS
    atoms 1, 5-7, 11-18 entry H          line    36 file /home/r08543048/miniconda3/share/psi4/basis/jun-cc-pvtz.gbs 
    atoms 2-3, 8-10     entry C          line   217 file /home/r08543048/miniconda3/share/psi4/basis/jun-cc-pvtz.gbs 
    atoms 4             entry O          line   305 file /home/r08543048/miniconda3/share/psi4/basis/jun-cc-pvtz.gbs 


         ---------------------------------------------------------
                                   SCF
               by Justin Turney, Rob Parrish, Andy Simmonett
                          and Daniel G. A. Smith
                              RHF Reference
                        1 Threads,  20980 MiB Core
         ---------------------------------------------------------

  ==> Geometry <==

    Molecular point group: c1
    Full point group: C1

    Geometry (in Angstrom), charge = 0, multiplicity = 1:

       Center              X                  Y                   Z               Mass       
    ------------   -----------------  -----------------  -----------------  -----------------
         H           -1.956596250033    -0.046732852717    -1.513416857349     1.007825032230
         C           -2.159645250033    -0.823989852717     0.546846142651    12.000000000000
         C           -1.782770250033     0.222304147283    -0.455349857349    12.000000000000
         O           -1.310395250033     1.306791147283    -0.173479857349    15.994914619570
         H           -1.977834250033    -0.471074852717     1.557973142651     1.007825032230
         H           -3.211604250033    -1.084441852717     0.419918142651     1.007825032230
         H           -1.579521250033    -1.727952852717     0.352700142651     1.007825032230
      Gh(C)           1.407481749967    -1.309706852717    -0.606997857349    12.000000000000
      Gh(C)           1.656943749967    -0.382286852717     0.576209142651    12.000000000000
      Gh(C)           2.175754749967     0.978279147283     0.128879142651    12.000000000000
      Gh(H)           0.691559749967    -0.866617852717    -1.301749857349     1.007825032230
      Gh(H)           2.330781749967    -1.483654852717    -1.161394857349     1.007825032230
      Gh(H)           1.021769749967    -2.279641852717    -0.291017857349     1.007825032230
      Gh(H)           2.373304749967    -0.847692852717     1.256503142651     1.007825032230
      Gh(H)           0.733190749967    -0.245605852717     1.141865142651     1.007825032230
      Gh(H)           2.370621749967     1.631005147283     0.979145142651     1.007825032230
      Gh(H)           3.104254749967     0.871176147283    -0.434120857349     1.007825032230
      Gh(H)           1.444733749967     1.473756147283    -0.510529857349     1.007825032230

  Running in c1 symmetry.

  Rotational constants: A =      0.14492  B =      0.05360  C =      0.04490 [cm^-1]
  Rotational constants: A =   4344.56542  B =   1606.98487  C =   1345.98605 [MHz]
  Nuclear repulsion =   69.668147720401237

  Charge       = 0
  Multiplicity = 1
  Electrons    = 24
  Nalpha       = 12
  Nbeta        = 12

  ==> Algorithm <==

  SCF Algorithm Type is DF.
  DIIS enabled.
  MOM disabled.
  Fractional occupation disabled.
  Guess Type is SAD.
  Energy threshold   = 1.00e-08
  Density threshold  = 1.00e-08
  Integral threshold = 0.00e+00

  ==> Primary Basis <==

  Basis Set: JUN-CC-PVTZ
    Blend: JUN-CC-PVTZ
    Number of shells: 150
    Number of basis function: 402
    Number of Cartesian functions: 450
    Spherical Harmonics?: true
    Max angular momentum: 3

   => Loading Basis Set <=

    Name: (JUN-CC-PVTZ AUX)
    Role: JKFIT
    Keyword: DF_BASIS_SCF
    atoms 1, 5-7, 11-18 entry H          line    70 file /home/r08543048/miniconda3/share/psi4/basis/jun-cc-pvtz-jkfit.gbs 
    atoms 2-3, 8-10     entry C          line   152 file /home/r08543048/miniconda3/share/psi4/basis/jun-cc-pvtz-jkfit.gbs 
    atoms 4             entry O          line   272 file /home/r08543048/miniconda3/share/psi4/basis/jun-cc-pvtz-jkfit.gbs 

  ==> Pre-Iterations <==

   -------------------------------------------------------
    Irrep   Nso     Nmo     Nalpha   Nbeta   Ndocc  Nsocc
   -------------------------------------------------------
     A        402     402       0       0       0       0
   -------------------------------------------------------
    Total     402     402      12      12      12       0
   -------------------------------------------------------

  ==> Integral Setup <==

  ==> DiskDFJK: Density-Fitted J/K Matrices <==

    J tasked:                  Yes
    K tasked:                  Yes
    wK tasked:                  No
    OpenMP threads:              1
    Integrals threads:           1
    Memory [MiB]:            15735
    Algorithm:                Core
    Integral Cache:           LOAD
    Schwarz Cutoff:          1E-12
    Fitting Condition:       1E-10

   => Auxiliary Basis Set <=

  Basis Set: (JUN-CC-PVTZ AUX)
    Blend: JUN-CC-PVTZ-JKFIT
    Number of shells: 294
    Number of basis function: 930
    Number of Cartesian functions: 1116
    Spherical Harmonics?: true
    Max angular momentum: 4

  Minimum eigenvalue in the overlap matrix is 8.3208368700E-05.
  Using Symmetric Orthogonalization.

  SCF Guess: Superposition of Atomic Densities via on-the-fly atomic UHF.

  ==> Iterations <==

                           Total Energy        Delta E     RMS |[F,P]|

   @DF-RHF iter SAD:  -152.12028359497646   -1.52120e+02   0.00000e+00 
   @DF-RHF iter   1:  -152.85584949700475   -7.35566e-01   1.21584e-03 DIIS
   @DF-RHF iter   2:  -152.93615612841546   -8.03066e-02   8.29868e-04 DIIS
   @DF-RHF iter   3:  -152.97326336822664   -3.71072e-02   1.39759e-04 DIIS
   @DF-RHF iter   4:  -152.97537626687944   -2.11290e-03   5.39988e-05 DIIS
   @DF-RHF iter   5:  -152.97577084869590   -3.94582e-04   1.07577e-05 DIIS
   @DF-RHF iter   6:  -152.97579985273592   -2.90040e-05   4.28787e-06 DIIS
   @DF-RHF iter   7:  -152.97580374317641   -3.89044e-06   1.65771e-06 DIIS
   @DF-RHF iter   8:  -152.97580436181593   -6.18640e-07   3.82746e-07 DIIS
   @DF-RHF iter   9:  -152.97580439681150   -3.49956e-08   1.03305e-07 DIIS
   @DF-RHF iter  10:  -152.97580439898152   -2.17003e-09   2.19583e-08 DIIS
   @DF-RHF iter  11:  -152.97580439907378   -9.22569e-11   4.11607e-09 DIIS
  Energy and wave function converged.


  ==> Post-Iterations <==

    Orbital Energies [Eh]
    ---------------------

    Doubly Occupied:                                                      

       1A    -20.560321     2A    -11.337655     3A    -11.242776  
       4A     -1.390079     5A     -1.025204     6A     -0.803786  
       7A     -0.675000     8A     -0.624167     9A     -0.606930  
      10A     -0.563213    11A     -0.502806    12A     -0.428244  

    Virtual:                                                              

      13A      0.033576    14A      0.047984    15A      0.049630  
      16A      0.057727    17A      0.069623    18A      0.082418  
      19A      0.084516    20A      0.091589    21A      0.094528  
      22A      0.106210    23A      0.111319    24A      0.115134  
      25A      0.119446    26A      0.124540    27A      0.137193  
      28A      0.138757    29A      0.146541    30A      0.158302  
      31A      0.164613    32A      0.169999    33A      0.189415  
      34A      0.212103    35A      0.236059    36A      0.240638  
      37A      0.244688    38A      0.256117    39A      0.263590  
      40A      0.271039    41A      0.279249    42A      0.284174  
      43A      0.293296    44A      0.300536    45A      0.309216  
      46A      0.313313    47A      0.327251    48A      0.331241  
      49A      0.336017    50A      0.340858    51A      0.349315  
      52A      0.359445    53A      0.363326    54A      0.377282  
      55A      0.386551    56A      0.395024    57A      0.402668  
      58A      0.412228    59A      0.420242    60A      0.423381  
      61A      0.440044    62A      0.445574    63A      0.459950  
      64A      0.462132    65A      0.472672    66A      0.484665  
      67A      0.502449    68A      0.505671    69A      0.510029  
      70A      0.528988    71A      0.536453    72A      0.560847  
      73A      0.565869    74A      0.569318    75A      0.585491  
      76A      0.588709    77A      0.594789    78A      0.607963  
      79A      0.619570    80A      0.625257    81A      0.632020  
      82A      0.641970    83A      0.649137    84A      0.671098  
      85A      0.680114    86A      0.695001    87A      0.705595  
      88A      0.710392    89A      0.718546    90A      0.748820  
      91A      0.765220    92A      0.774072    93A      0.789263  
      94A      0.797090    95A      0.802989    96A      0.818648  
      97A      0.841246    98A      0.851560    99A      0.879129  
     100A      0.910087   101A      0.922469   102A      0.933354  
     103A      0.956557   104A      0.959714   105A      1.020843  
     106A      1.027726   107A      1.070882   108A      1.073140  
     109A      1.084161   110A      1.094427   111A      1.100368  
     112A      1.105845   113A      1.124527   114A      1.124977  
     115A      1.138434   116A      1.163843   117A      1.179363  
     118A      1.193692   119A      1.205156   120A      1.211279  
     121A      1.223955   122A      1.246718   123A      1.253060  
     124A      1.259839   125A      1.286007   126A      1.292809  
     127A      1.298283   128A      1.307855   129A      1.320040  
     130A      1.325907   131A      1.340941   132A      1.347313  
     133A      1.361282   134A      1.367929   135A      1.378364  
     136A      1.391193   137A      1.404370   138A      1.405806  
     139A      1.427628   140A      1.432755   141A      1.449783  
     142A      1.463670   143A      1.467583   144A      1.485127  
     145A      1.490873   146A      1.509740   147A      1.517299  
     148A      1.538580   149A      1.541729   150A      1.555388  
     151A      1.563157   152A      1.597600   153A      1.611128  
     154A      1.611886   155A      1.626176   156A      1.633306  
     157A      1.642155   158A      1.668325   159A      1.683166  
     160A      1.708430   161A      1.723531   162A      1.733776  
     163A      1.754467   164A      1.777739   165A      1.788710  
     166A      1.804354   167A      1.823923   168A      1.842243  
     169A      1.860066   170A      1.890659   171A      1.918040  
     172A      1.940948   173A      1.965317   174A      2.021736  
     175A      2.040813   176A      2.085898   177A      2.135386  
     178A      2.159477   179A      2.181942   180A      2.200093  
     181A      2.304837   182A      2.335930   183A      2.360347  
     184A      2.377182   185A      2.400852   186A      2.404382  
     187A      2.411289   188A      2.457663   189A      2.469605  
     190A      2.494058   191A      2.538359   192A      2.567733  
     193A      2.592657   194A      2.605577   195A      2.683160  
     196A      2.732853   197A      2.756656   198A      2.812082  
     199A      2.847017   200A      2.935903   201A      2.961556  
     202A      3.033181   203A      3.042024   204A      3.069384  
     205A      3.118654   206A      3.181411   207A      3.193471  
     208A      3.236213   209A      3.261886   210A      3.331788  
     211A      3.341095   212A      3.371074   213A      3.393544  
     214A      3.434266   215A      3.458148   216A      3.480713  
     217A      3.514801   218A      3.521088   219A      3.540616  
     220A      3.552013   221A      3.555130   222A      3.569994  
     223A      3.579628   224A      3.589775   225A      3.601201  
     226A      3.628500   227A      3.630136   228A      3.645445  
     229A      3.661412   230A      3.676419   231A      3.697568  
     232A      3.729258   233A      3.737143   234A      3.754703  
     235A      3.764736   236A      3.784363   237A      3.792716  
     238A      3.802393   239A      3.812696   240A      3.831563  
     241A      3.847926   242A      3.864927   243A      3.871799  
     244A      3.887126   245A      3.899714   246A      3.921467  
     247A      3.929905   248A      3.945340   249A      3.956356  
     250A      3.984281   251A      4.014873   252A      4.065556  
     253A      4.081371   254A      4.097541   255A      4.110644  
     256A      4.133443   257A      4.167844   258A      4.181250  
     259A      4.184579   260A      4.196248   261A      4.215414  
     262A      4.233753   263A      4.254213   264A      4.286050  
     265A      4.318092   266A      4.326350   267A      4.344134  
     268A      4.352952   269A      4.371380   270A      4.385322  
     271A      4.403106   272A      4.422954   273A      4.436768  
     274A      4.456499   275A      4.479872   276A      4.484767  
     277A      4.518468   278A      4.524734   279A      4.532860  
     280A      4.549902   281A      4.555296   282A      4.573531  
     283A      4.583437   284A      4.604645   285A      4.625282  
     286A      4.632992   287A      4.637332   288A      4.665213  
     289A      4.688520   290A      4.696878   291A      4.719939  
     292A      4.726552   293A      4.741975   294A      4.759142  
     295A      4.776357   296A      4.793083   297A      4.800229  
     298A      4.812545   299A      4.822076   300A      4.824234  
     301A      4.841120   302A      4.850158   303A      4.866385  
     304A      4.876587   305A      4.897864   306A      4.912114  
     307A      4.921302   308A      4.943589   309A      4.947686  
     310A      4.959631   311A      4.964747   312A      4.978921  
     313A      4.988241   314A      5.004934   315A      5.030434  
     316A      5.038535   317A      5.059955   318A      5.068640  
     319A      5.105240   320A      5.130399   321A      5.134439  
     322A      5.156724   323A      5.168083   324A      5.181060  
     325A      5.197133   326A      5.250619   327A      5.254871  
     328A      5.284814   329A      5.349987   330A      5.383860  
     331A      5.401074   332A      5.462340   333A      5.469078  
     334A      5.484432   335A      5.541562   336A      5.577660  
     337A      5.598070   338A      5.613208   339A      5.621447  
     340A      5.630898   341A      5.635928   342A      5.646489  
     343A      5.687674   344A      5.708801   345A      5.717941  
     346A      5.809922   347A      5.834825   348A      5.863480  
     349A      5.909566   350A      5.965147   351A      6.019547  
     352A      6.052586   353A      6.075863   354A      6.118721  
     355A      6.189300   356A      6.202015   357A      6.259913  
     358A      6.308984   359A      6.343392   360A      6.350431  
     361A      6.375203   362A      6.423128   363A      6.432079  
     364A      6.438738   365A      6.442279   366A      6.492008  
     367A      6.511238   368A      6.615926   369A      6.770369  
     370A      6.794420   371A      6.901024   372A      6.932071  
     373A      6.994753   374A      7.220463   375A      7.264959  
     376A      7.301149   377A      7.305969   378A      7.463672  
     379A      7.487135   380A      7.559804   381A      7.594167  
     382A      7.601165   383A      7.633713   384A      7.684807  
     385A      7.697412   386A      7.705757   387A      7.805147  
     388A      7.835659   389A      7.865948   390A      7.914649  
     391A      8.048981   392A      8.208142   393A      8.494084  
     394A      9.573708   395A      9.880684   396A      9.908429  
     397A     12.430650   398A     14.117897   399A     14.620912  
     400A     44.315008   401A     45.335998   402A     45.770468  

    Final Occupation by Irrep:
              A 
    DOCC [    12 ]

  @DF-RHF Final Energy:  -152.97580439907378

   => Energetics <=

    Nuclear Repulsion Energy =             69.6681477204012367
    One-Electron Energy =                -345.7675447636879653
    Two-Electron Energy =                 123.1235926442129625
    Total Energy =                       -152.9758043990737519

Computation Completed


Properties will be evaluated at   0.000000,   0.000000,   0.000000 [a0]

Properties computed using the SCF density matrix

  Nuclear Dipole Moment: [e a0]
     X:   -80.9997      Y:     6.6405      Z:    -0.0410

  Electronic Dipole Moment: [e a0]
     X:    80.4926      Y:    -7.8354      Z:    -0.0769

  Dipole Moment: [e a0]
     X:    -0.5072      Y:    -1.1949      Z:    -0.1179     Total:     1.3034

  Dipole Moment: [D]
     X:    -1.2891      Y:    -3.0371      Z:    -0.2996     Total:     3.3129


*** tstop() called on r282 at Fri Sep 10 12:34:29 2021
Module time:
	user time   =      15.11 seconds =       0.25 minutes
	system time =       0.35 seconds =       0.01 minutes
	total time  =         15 seconds =       0.25 minutes
Total time:
	user time   =      42.09 seconds =       0.70 minutes
	system time =       1.13 seconds =       0.02 minutes
	total time  =         43 seconds =       0.72 minutes

  //>>>>>>>>>>>>>>>>>>>>>>>>>>>>>>>>>>>//
  //            Monomer B HF           //
  //<<<<<<<<<<<<<<<<<<<<<<<<<<<<<<<<<<<//


*** tstart() called on r282
*** at Fri Sep 10 12:34:29 2021

   => Loading Basis Set <=

    Name: JUN-CC-PVTZ
    Role: ORBITAL
    Keyword: BASIS
    atoms 1, 5-7, 11-18 entry H          line    36 file /home/r08543048/miniconda3/share/psi4/basis/jun-cc-pvtz.gbs 
    atoms 2-3, 8-10     entry C          line   217 file /home/r08543048/miniconda3/share/psi4/basis/jun-cc-pvtz.gbs 
    atoms 4             entry O          line   305 file /home/r08543048/miniconda3/share/psi4/basis/jun-cc-pvtz.gbs 


         ---------------------------------------------------------
                                   SCF
               by Justin Turney, Rob Parrish, Andy Simmonett
                          and Daniel G. A. Smith
                              RHF Reference
                        1 Threads,  20980 MiB Core
         ---------------------------------------------------------

  ==> Geometry <==

    Molecular point group: c1
    Full point group: C1

    Geometry (in Angstrom), charge = 0, multiplicity = 1:

       Center              X                  Y                   Z               Mass       
    ------------   -----------------  -----------------  -----------------  -----------------
      Gh(H)          -1.956596250033    -0.046732852717    -1.513416857349     1.007825032230
      Gh(C)          -2.159645250033    -0.823989852717     0.546846142651    12.000000000000
      Gh(C)          -1.782770250033     0.222304147283    -0.455349857349    12.000000000000
      Gh(O)          -1.310395250033     1.306791147283    -0.173479857349    15.994914619570
      Gh(H)          -1.977834250033    -0.471074852717     1.557973142651     1.007825032230
      Gh(H)          -3.211604250033    -1.084441852717     0.419918142651     1.007825032230
      Gh(H)          -1.579521250033    -1.727952852717     0.352700142651     1.007825032230
         C            1.407481749967    -1.309706852717    -0.606997857349    12.000000000000
         C            1.656943749967    -0.382286852717     0.576209142651    12.000000000000
         C            2.175754749967     0.978279147283     0.128879142651    12.000000000000
         H            0.691559749967    -0.866617852717    -1.301749857349     1.007825032230
         H            2.330781749967    -1.483654852717    -1.161394857349     1.007825032230
         H            1.021769749967    -2.279641852717    -0.291017857349     1.007825032230
         H            2.373304749967    -0.847692852717     1.256503142651     1.007825032230
         H            0.733190749967    -0.245605852717     1.141865142651     1.007825032230
         H            2.370621749967     1.631005147283     0.979145142651     1.007825032230
         H            3.104254749967     0.871176147283    -0.434120857349     1.007825032230
         H            1.444733749967     1.473756147283    -0.510529857349     1.007825032230

  Running in c1 symmetry.

  Rotational constants: A =      0.14492  B =      0.05360  C =      0.04490 [cm^-1]
  Rotational constants: A =   4344.56542  B =   1606.98487  C =   1345.98605 [MHz]
  Nuclear repulsion =   82.843107383290786

  Charge       = 0
  Multiplicity = 1
  Electrons    = 26
  Nalpha       = 13
  Nbeta        = 13

  ==> Algorithm <==

  SCF Algorithm Type is DF.
  DIIS enabled.
  MOM disabled.
  Fractional occupation disabled.
  Guess Type is SAD.
  Energy threshold   = 1.00e-08
  Density threshold  = 1.00e-08
  Integral threshold = 0.00e+00

  ==> Primary Basis <==

  Basis Set: JUN-CC-PVTZ
    Blend: JUN-CC-PVTZ
    Number of shells: 150
    Number of basis function: 402
    Number of Cartesian functions: 450
    Spherical Harmonics?: true
    Max angular momentum: 3

   => Loading Basis Set <=

    Name: (JUN-CC-PVTZ AUX)
    Role: JKFIT
    Keyword: DF_BASIS_SCF
    atoms 1, 5-7, 11-18 entry H          line    70 file /home/r08543048/miniconda3/share/psi4/basis/jun-cc-pvtz-jkfit.gbs 
    atoms 2-3, 8-10     entry C          line   152 file /home/r08543048/miniconda3/share/psi4/basis/jun-cc-pvtz-jkfit.gbs 
    atoms 4             entry O          line   272 file /home/r08543048/miniconda3/share/psi4/basis/jun-cc-pvtz-jkfit.gbs 

  ==> Pre-Iterations <==

   -------------------------------------------------------
    Irrep   Nso     Nmo     Nalpha   Nbeta   Ndocc  Nsocc
   -------------------------------------------------------
     A        402     402       0       0       0       0
   -------------------------------------------------------
    Total     402     402      13      13      13       0
   -------------------------------------------------------

  ==> Integral Setup <==

  ==> DiskDFJK: Density-Fitted J/K Matrices <==

    J tasked:                  Yes
    K tasked:                  Yes
    wK tasked:                  No
    OpenMP threads:              1
    Integrals threads:           1
    Memory [MiB]:            15735
    Algorithm:                Core
    Integral Cache:           LOAD
    Schwarz Cutoff:          1E-12
    Fitting Condition:       1E-10

   => Auxiliary Basis Set <=

  Basis Set: (JUN-CC-PVTZ AUX)
    Blend: JUN-CC-PVTZ-JKFIT
    Number of shells: 294
    Number of basis function: 930
    Number of Cartesian functions: 1116
    Spherical Harmonics?: true
    Max angular momentum: 4

  Minimum eigenvalue in the overlap matrix is 8.3208368700E-05.
  Using Symmetric Orthogonalization.

  SCF Guess: Superposition of Atomic Densities via on-the-fly atomic UHF.

  ==> Iterations <==

                           Total Energy        Delta E     RMS |[F,P]|

   @DF-RHF iter SAD:  -117.72751538003203   -1.17728e+02   0.00000e+00 
   @DF-RHF iter   1:  -118.14624157229693   -4.18726e-01   1.28253e-03 DIIS
   @DF-RHF iter   2:  -118.27566798275640   -1.29426e-01   6.06887e-04 DIIS
   @DF-RHF iter   3:  -118.30611876378101   -3.04508e-02   1.01933e-04 DIIS
   @DF-RHF iter   4:  -118.30797067612482   -1.85191e-03   2.00711e-05 DIIS
   @DF-RHF iter   5:  -118.30802889799853   -5.82219e-05   5.64964e-06 DIIS
   @DF-RHF iter   6:  -118.30803351106073   -4.61306e-06   1.01608e-06 DIIS
   @DF-RHF iter   7:  -118.30803368275912   -1.71698e-07   1.91382e-07 DIIS
   @DF-RHF iter   8:  -118.30803369026982   -7.51071e-09   3.35287e-08 DIIS
   @DF-RHF iter   9:  -118.30803369050574   -2.35914e-10   6.61399e-09 DIIS
  Energy and wave function converged.


  ==> Post-Iterations <==

    Orbital Energies [Eh]
    ---------------------

    Doubly Occupied:                                                      

       1A    -11.215513     2A    -11.207910     3A    -11.207692  
       4A     -1.054225     5A     -0.924612     6A     -0.799744  
       7A     -0.625133     8A     -0.598354     9A     -0.549069  
      10A     -0.530246    11A     -0.475515    12A     -0.474724  
      13A     -0.468224  

    Virtual:                                                              

      14A      0.037760    15A      0.049832    16A      0.055238  
      17A      0.058783    18A      0.071325    19A      0.081165  
      20A      0.086474    21A      0.092512    22A      0.096276  
      23A      0.109280    24A      0.114631    25A      0.119585  
      26A      0.120824    27A      0.127131    28A      0.139333  
      29A      0.153476    30A      0.155693    31A      0.170646  
      32A      0.175437    33A      0.189051    34A      0.204369  
      35A      0.209896    36A      0.229005    37A      0.237648  
      38A      0.252048    39A      0.264040    40A      0.275245  
      41A      0.280266    42A      0.291118    43A      0.296998  
      44A      0.299221    45A      0.310227    46A      0.314269  
      47A      0.324204    48A      0.335939    49A      0.341004  
      50A      0.346847    51A      0.350068    52A      0.354365  
      53A      0.358558    54A      0.374746    55A      0.376629  
      56A      0.385493    57A      0.391478    58A      0.401450  
      59A      0.412566    60A      0.420320    61A      0.425934  
      62A      0.430898    63A      0.434844    64A      0.447108  
      65A      0.453521    66A      0.481139    67A      0.499625  
      68A      0.501268    69A      0.505121    70A      0.519058  
      71A      0.521678    72A      0.530566    73A      0.539787  
      74A      0.549051    75A      0.555425    76A      0.564252  
      77A      0.577955    78A      0.590934    79A      0.597302  
      80A      0.615830    81A      0.621385    82A      0.642468  
      83A      0.664273    84A      0.672575    85A      0.676385  
      86A      0.689004    87A      0.710564    88A      0.753740  
      89A      0.762058    90A      0.766341    91A      0.779868  
      92A      0.788139    93A      0.794478    94A      0.798939  
      95A      0.802618    96A      0.820474    97A      0.829617  
      98A      0.842944    99A      0.873795   100A      0.878905  
     101A      0.891120   102A      0.914412   103A      0.924527  
     104A      0.928782   105A      0.947825   106A      0.958557  
     107A      0.974588   108A      0.978640   109A      0.994419  
     110A      1.014803   111A      1.018968   112A      1.037197  
     113A      1.055761   114A      1.066700   115A      1.084137  
     116A      1.106848   117A      1.110100   118A      1.139853  
     119A      1.160707   120A      1.166709   121A      1.176365  
     122A      1.196070   123A      1.202058   124A      1.218413  
     125A      1.222569   126A      1.236298   127A      1.249428  
     128A      1.263979   129A      1.287700   130A      1.310275  
     131A      1.330208   132A      1.338460   133A      1.352489  
     134A      1.358012   135A      1.365977   136A      1.380255  
     137A      1.394791   138A      1.401589   139A      1.419663  
     140A      1.426780   141A      1.447658   142A      1.469895  
     143A      1.475883   144A      1.481077   145A      1.492350  
     146A      1.517313   147A      1.540099   148A      1.541396  
     149A      1.551437   150A      1.563026   151A      1.567962  
     152A      1.580837   153A      1.599978   154A      1.603253  
     155A      1.614239   156A      1.622884   157A      1.642112  
     158A      1.666426   159A      1.671687   160A      1.682854  
     161A      1.698871   162A      1.704699   163A      1.737193  
     164A      1.742137   165A      1.761391   166A      1.806584  
     167A      1.834907   168A      1.843943   169A      1.862252  
     170A      1.882816   171A      1.905316   172A      1.909989  
     173A      1.950078   174A      1.957889   175A      1.972565  
     176A      1.986589   177A      2.018618   178A      2.041741  
     179A      2.086653   180A      2.092845   181A      2.135621  
     182A      2.226491   183A      2.370960   184A      2.376112  
     185A      2.492134   186A      2.541269   187A      2.624110  
     188A      2.703797   189A      2.736814   190A      2.750341  
     191A      2.757450   192A      2.785669   193A      2.803820  
     194A      2.845758   195A      2.853632   196A      2.868357  
     197A      2.884454   198A      2.920046   199A      2.938004  
     200A      2.957762   201A      2.984244   202A      3.010924  
     203A      3.025417   204A      3.045555   205A      3.085779  
     206A      3.099116   207A      3.136744   208A      3.160467  
     209A      3.168183   210A      3.180542   211A      3.189242  
     212A      3.211988   213A      3.265673   214A      3.283700  
     215A      3.305175   216A      3.323460   217A      3.339816  
     218A      3.371744   219A      3.377478   220A      3.393180  
     221A      3.423077   222A      3.442135   223A      3.470935  
     224A      3.475945   225A      3.486746   226A      3.498681  
     227A      3.503369   228A      3.516159   229A      3.529715  
     230A      3.535919   231A      3.541801   232A      3.576142  
     233A      3.582435   234A      3.598363   235A      3.610142  
     236A      3.627520   237A      3.642199   238A      3.658735  
     239A      3.673892   240A      3.720195   241A      3.735449  
     242A      3.756092   243A      3.778533   244A      3.797678  
     245A      3.804966   246A      3.819572   247A      3.830090  
     248A      3.841206   249A      3.858234   250A      3.869222  
     251A      3.880113   252A      3.901162   253A      3.918564  
     254A      3.931746   255A      3.951042   256A      3.956014  
     257A      3.965356   258A      3.974738   259A      4.007956  
     260A      4.030392   261A      4.051933   262A      4.090529  
     263A      4.117837   264A      4.167959   265A      4.187186  
     266A      4.201702   267A      4.204837   268A      4.215696  
     269A      4.234741   270A      4.241991   271A      4.289771  
     272A      4.293113   273A      4.320006   274A      4.324121  
     275A      4.335462   276A      4.353158   277A      4.362722  
     278A      4.377109   279A      4.381770   280A      4.396449  
     281A      4.417636   282A      4.432126   283A      4.444553  
     284A      4.471097   285A      4.480331   286A      4.500600  
     287A      4.508254   288A      4.520736   289A      4.534424  
     290A      4.539211   291A      4.543407   292A      4.564694  
     293A      4.570722   294A      4.582820   295A      4.591116  
     296A      4.631626   297A      4.668371   298A      4.686079  
     299A      4.693771   300A      4.699874   301A      4.728616  
     302A      4.734712   303A      4.742602   304A      4.756897  
     305A      4.767479   306A      4.784586   307A      4.809755  
     308A      4.819199   309A      4.830260   310A      4.837606  
     311A      4.851213   312A      4.870444   313A      4.883171  
     314A      4.915547   315A      4.937551   316A      4.946201  
     317A      4.974187   318A      4.983317   319A      5.001281  
     320A      5.024499   321A      5.044510   322A      5.059142  
     323A      5.123422   324A      5.134386   325A      5.144076  
     326A      5.171567   327A      5.200683   328A      5.242985  
     329A      5.261393   330A      5.276587   331A      5.285734  
     332A      5.304902   333A      5.332390   334A      5.389939  
     335A      5.397831   336A      5.428267   337A      5.472585  
     338A      5.516092   339A      5.585296   340A      5.606258  
     341A      5.611952   342A      5.643437   343A      5.722882  
     344A      5.748378   345A      5.755439   346A      5.762149  
     347A      5.772634   348A      5.791881   349A      5.803806  
     350A      5.816878   351A      5.822709   352A      5.925142  
     353A      5.930051   354A      5.954269   355A      5.979577  
     356A      6.052080   357A      6.093130   358A      6.105332  
     359A      6.113798   360A      6.168285   361A      6.268124  
     362A      6.280712   363A      6.326246   364A      6.470113  
     365A      6.479170   366A      6.489504   367A      6.519239  
     368A      6.525254   369A      6.552868   370A      6.579895  
     371A      6.609421   372A      6.693301   373A      6.764616  
     374A      6.873962   375A      7.015057   376A      7.318376  
     377A      7.454126   378A      7.563899   379A      7.589738  
     380A      7.803696   381A      7.843826   382A      7.910664  
     383A      8.144725   384A      8.315567   385A      8.487795  
     386A      9.400130   387A      9.415629   388A      9.809135  
     389A      9.855770   390A      9.878586   391A      9.949095  
     392A     10.049392   393A     10.988390   394A     11.685932  
     395A     11.879969   396A     13.724804   397A     13.860957  
     398A     14.436893   399A     14.657278   400A     43.417270  
     401A     45.825355   402A     60.398712  

    Final Occupation by Irrep:
              A 
    DOCC [    13 ]

  @DF-RHF Final Energy:  -118.30803369050574

   => Energetics <=

    Nuclear Repulsion Energy =             82.8431073832907856
    One-Electron Energy =                -322.0403609885131573
    Two-Electron Energy =                 120.8892199147166480
    Total Energy =                       -118.3080336905057379

Computation Completed


Properties will be evaluated at   0.000000,   0.000000,   0.000000 [a0]

Properties computed using the SCF density matrix

  Nuclear Dipole Moment: [e a0]
     X:    86.0039      Y:   -11.3942      Z:     0.5050

  Electronic Dipole Moment: [e a0]
     X:   -86.0084      Y:    11.3871      Z:    -0.4732

  Dipole Moment: [e a0]
     X:    -0.0045      Y:    -0.0071      Z:     0.0318     Total:     0.0329

  Dipole Moment: [D]
     X:    -0.0115      Y:    -0.0180      Z:     0.0808     Total:     0.0836


*** tstop() called on r282 at Fri Sep 10 12:34:41 2021
Module time:
	user time   =      11.60 seconds =       0.19 minutes
	system time =       0.36 seconds =       0.01 minutes
	total time  =         12 seconds =       0.20 minutes
Total time:
	user time   =      53.70 seconds =       0.89 minutes
	system time =       1.49 seconds =       0.02 minutes
	total time  =         55 seconds =       0.92 minutes
  Constructing Basis Sets for SAPT...

   => Loading Basis Set <=

    Name: (JUN-CC-PVTZ AUX)
    Role: RIFIT
    Keyword: DF_BASIS_SAPT
    atoms 1, 5-7, 11-18 entry H          line    30 file /home/r08543048/miniconda3/share/psi4/basis/jun-cc-pvtz-ri.gbs 
    atoms 2-3, 8-10     entry C          line   132 file /home/r08543048/miniconda3/share/psi4/basis/jun-cc-pvtz-ri.gbs 
    atoms 4             entry O          line   244 file /home/r08543048/miniconda3/share/psi4/basis/jun-cc-pvtz-ri.gbs 


  //>>>>>>>>>>>>>>>>>>>>>>>>>>>>>>>>>>>//
  //               SAPT0               //
  //<<<<<<<<<<<<<<<<<<<<<<<<<<<<<<<<<<<//


*** tstart() called on r282
*** at Fri Sep 10 12:34:41 2021

        SAPT0  
    Ed Hohenstein
     6 June 2009

      Orbital Information
  --------------------------
    NSO        =       402
    NMO        =       402
    NRI        =       942
    NOCC A     =        12
    NOCC B     =        13
    FOCC A     =         0
    FOCC B     =         0
    NVIR A     =       390
    NVIR B     =       389

    Elst10,r            =    -0.001859984604 [Eh]
    Exch10              =     0.005135198863 [Eh]
    Exch10 (S^2)        =     0.005125473499 [Eh]

    Iter     Energy [mEh]          dE [mEh]         Residual      Time [s]
       1      -0.31297033       0.312970331       2.306322475             1
       2      -0.38224048       0.069270148       0.490043957             1
       3      -0.38213129      -0.000109186       0.205558329             2
       4      -0.38114453      -0.000986768       0.074747617             2
       5      -0.38101674      -0.000127787       0.037119258             3
       6      -0.38125685       0.000240113       0.017026622             3
       7      -0.38120958      -0.000047277       0.006060893             4
       8      -0.38119359      -0.000015989       0.001259819             4
       9      -0.38119899       0.000005405       0.000461089             5
      10      -0.38119825      -0.000000739       0.000157426             5
      11      -0.38119800      -0.000000251       0.000048883             6
      12      -0.38119807       0.000000072       0.000011222             6
      13      -0.38119809       0.000000016       0.000002490             6
      14      -0.38119808      -0.000000006       0.000000623             7

    CHF Iterations converged


    Iter     Energy [mEh]          dE [mEh]         Residual      Time [s]
       1      -0.96482315       0.964823145       4.792107457             0
       2      -1.14806704       0.183243894       1.687696971             1
       3      -1.17080380       0.022736761       0.410224455             1
       4      -1.16672416      -0.004079636       0.114440815             2
       5      -1.16581775      -0.000906419       0.021808787             2
       6      -1.16601605       0.000198307       0.005933623             3
       7      -1.16604749       0.000031435       0.001526940             3
       8      -1.16604002      -0.000007470       0.000427809             4
       9      -1.16603750      -0.000002515       0.000081585             4
      10      -1.16603806       0.000000561       0.000021626             5
      11      -1.16603812       0.000000061       0.000005471             5
      12      -1.16603810      -0.000000027       0.000001172             6
      13      -1.16603809      -0.000000003       0.000000234             6

    CHF Iterations converged

    Ind20,r (A<-B)      =    -0.000381198085 [Eh]
    Ind20,r (B<-A)      =    -0.001166038095 [Eh]
    Ind20,r             =    -0.001547236179 [Eh]
    Exch-Ind20,r (A<-B) =     0.000337931818 [Eh]
    Exch-Ind20,r (B<-A) =     0.000664222804 [Eh]
    Exch-Ind20,r        =     0.001002154622 [Eh]
    Disp20              =    -0.006528846058 [Eh]
    Disp20 (SS)         =    -0.003264423029 [Eh]
    Disp20 (OS)         =    -0.003264423029 [Eh]
    Exch-Disp20         =     0.000555906016 [Eh]
    Exch-Disp20 (SS)    =     0.000359178934 [Eh]
    Exch-Disp20 (OS)    =     0.000196727082 [Eh]

    SAPT Results 
  --------------------------------------------------------------------------------------------------------
    Electrostatics                 -1.85998460 [mEh]      -1.16715796 [kcal/mol]      -4.88338891 [kJ/mol]
      Elst10,r                     -1.85998460 [mEh]      -1.16715796 [kcal/mol]      -4.88338891 [kJ/mol]

    Exchange                        5.13519886 [mEh]       3.22238594 [kcal/mol]      13.48246276 [kJ/mol]
      Exch10                        5.13519886 [mEh]       3.22238594 [kcal/mol]      13.48246276 [kJ/mol]
      Exch10(S^2)                   5.12547350 [mEh]       3.21628318 [kcal/mol]      13.45692882 [kJ/mol]

    Induction                      -0.91347715 [mEh]      -0.57321557 [kcal/mol]      -2.39833394 [kJ/mol]
      Ind20,r                      -1.54723618 [mEh]      -0.97090536 [kcal/mol]      -4.06226803 [kJ/mol]
      Exch-Ind20,r                  1.00215462 [mEh]       0.62886152 [kcal/mol]       2.63115660 [kJ/mol]
      delta HF,r (2)               -0.36839560 [mEh]      -0.23117173 [kcal/mol]      -0.96722250 [kJ/mol]

    Dispersion                     -5.97294004 [mEh]      -3.74807646 [kcal/mol]     -15.68195192 [kJ/mol]
      Disp20                       -6.52884606 [mEh]      -4.09691275 [kcal/mol]     -17.14148296 [kJ/mol]
      Exch-Disp20                   0.55590602 [mEh]       0.34883629 [kcal/mol]       1.45953104 [kJ/mol]
      Disp20 (SS)                  -3.26442303 [mEh]      -2.04845638 [kcal/mol]      -8.57074148 [kJ/mol]
      Disp20 (OS)                  -3.26442303 [mEh]      -2.04845638 [kcal/mol]      -8.57074148 [kJ/mol]
      Exch-Disp20 (SS)              0.35917893 [mEh]       0.22538818 [kcal/mol]       0.94302416 [kJ/mol]
      Exch-Disp20 (OS)              0.19672708 [mEh]       0.12344811 [kcal/mol]       0.51650688 [kJ/mol]

  Total HF                          2.36173711 [mEh]       1.48201241 [kcal/mol]       6.20073992 [kJ/mol]
  Total SAPT0                      -3.61120294 [mEh]      -2.26606405 [kcal/mol]      -9.48121200 [kJ/mol]

  Special recipe for scaled SAPT0 (see Manual):
    Electrostatics sSAPT0          -1.85998460 [mEh]      -1.16715796 [kcal/mol]      -4.88338891 [kJ/mol]
    Exchange sSAPT0                 5.13519886 [mEh]       3.22238594 [kcal/mol]      13.48246276 [kJ/mol]
    Induction sSAPT0               -0.90776169 [mEh]      -0.56962906 [kcal/mol]      -2.38332798 [kJ/mol]
    Dispersion sSAPT0              -5.96976961 [mEh]      -3.74608699 [kcal/mol]     -15.67362795 [kJ/mol]
  Total sSAPT0                     -3.60231704 [mEh]      -2.26048807 [kcal/mol]      -9.45788208 [kJ/mol]
  --------------------------------------------------------------------------------------------------------

*** tstop() called on r282 at Fri Sep 10 12:35:35 2021
Module time:
	user time   =      44.36 seconds =       0.74 minutes
	system time =       8.94 seconds =       0.15 minutes
	total time  =         54 seconds =       0.90 minutes
Total time:
	user time   =      98.17 seconds =       1.64 minutes
	system time =      10.43 seconds =       0.17 minutes
	total time  =        109 seconds =       1.82 minutes

    Psi4 stopped on: Friday, 10 September 2021 12:35PM
    Psi4 wall time for execution: 0:01:48.91

*** Psi4 exiting successfully. Buy a developer a beer!
