
    -----------------------------------------------------------------------
          Psi4: An Open-Source Ab Initio Electronic Structure Package
                               Psi4 1.3.2 release

                         Git: Rev {HEAD} ecbda83 


    R. M. Parrish, L. A. Burns, D. G. A. Smith, A. C. Simmonett,
    A. E. DePrince III, E. G. Hohenstein, U. Bozkaya, A. Yu. Sokolov,
    R. Di Remigio, R. M. Richard, J. F. Gonthier, A. M. James,
    H. R. McAlexander, A. Kumar, M. Saitow, X. Wang, B. P. Pritchard,
    P. Verma, H. F. Schaefer III, K. Patkowski, R. A. King, E. F. Valeev,
    F. A. Evangelista, J. M. Turney, T. D. Crawford, and C. D. Sherrill,
    J. Chem. Theory Comput. 13(7) pp 3185--3197 (2017).
    (doi: 10.1021/acs.jctc.7b00174)


                         Additional Contributions by
    P. Kraus, H. Kruse, M. H. Lechner, M. C. Schieber, R. A. Shaw,
    A. Alenaizan, R. Galvelis, Z. L. Glick, S. Lehtola, and J. P. Misiewicz

    -----------------------------------------------------------------------


    Psi4 started on: Friday, 10 September 2021 09:32PM

    Process ID: 57203
    Host:       r282
    PSIDATADIR: /home/r08543048/miniconda3/share/psi4
    Memory:     500.0 MiB
    Threads:    1
    
  ==> Input File <==

--------------------------------------------------------------------------
# Any line starting with the # character is a comment line
#! Sample  computation

memory 22 gb

molecule Dimer {
0 1
 C 0.934680   -1.914568    0.209223
 C 1.437889   -0.711798    0.502559
 C 2.127425    0.184461   -0.475439
 C 3.577688    0.451977   -0.070772
 H 0.459346   -2.527266    0.962754
 H 0.989460   -2.309806   -0.797840
 H 1.369834   -0.350362    1.525581
 H 2.090633   -0.267554   -1.468857
 H 1.592408    1.136344   -0.534889

 H 3.624251    0.902805    0.920999

 H 4.145201   -0.477704   -0.042895

 H 4.062724    1.130422   -0.771896


 






 --
0 1
 C -2.815629   -1.286055   -0.345194
 H -1.977743   -1.795925   -0.823049
 H -3.518716   -0.994607   -1.126890
 H -3.317031   -2.001185    0.306854
 C -2.325634   -0.067039    0.424903
 H -3.164895    0.416184    0.933120
 H -1.625946   -0.381968    1.203492
 C -1.633671    0.947468   -0.476037
 H -2.338877    1.292594   -1.237400
 H -0.818870    0.448136   -1.007062
 C -1.089278    2.138035    0.302577
 H -0.362055    1.809227    1.047114
 H -0.599170    2.860131   -0.350924
 H -1.891377    2.655642    0.830859







units angstrom

no_reorient
symmetry c1
}

set globals{
  basis jun-cc-pvtz
}

energy('sapt0')


--------------------------------------------------------------------------

  Memory set to  20.489 GiB by Python driver.

  //>>>>>>>>>>>>>>>>>>>>>>>>>>>>>>>>>>>//
  //              Dimer HF             //
  //<<<<<<<<<<<<<<<<<<<<<<<<<<<<<<<<<<<//


*** tstart() called on r282
*** at Fri Sep 10 21:32:33 2021

   => Loading Basis Set <=

    Name: JUN-CC-PVTZ
    Role: ORBITAL
    Keyword: BASIS
    atoms 1-4, 13, 17, 20, 23              entry C          line   217 file /home/r08543048/miniconda3/share/psi4/basis/jun-cc-pvtz.gbs 
    atoms 5-12, 14-16, 18-19, 21-22, 24-26 entry H          line    36 file /home/r08543048/miniconda3/share/psi4/basis/jun-cc-pvtz.gbs 


         ---------------------------------------------------------
                                   SCF
               by Justin Turney, Rob Parrish, Andy Simmonett
                          and Daniel G. A. Smith
                              RHF Reference
                        1 Threads,  20980 MiB Core
         ---------------------------------------------------------

  ==> Geometry <==

    Molecular point group: c1
    Full point group: C1

    Geometry (in Angstrom), charge = 0, multiplicity = 1:

       Center              X                  Y                   Z               Mass       
    ------------   -----------------  -----------------  -----------------  -----------------
         C            0.923546435529    -1.901136967444     0.205477286134    12.000000000000
         C            1.426755435529    -0.698366967444     0.498813286134    12.000000000000
         C            2.116291435529     0.197892032556    -0.479184713866    12.000000000000
         C            3.566554435529     0.465408032556    -0.074517713866    12.000000000000
         H            0.448212435529    -2.513834967444     0.959008286134     1.007825032230
         H            0.978326435529    -2.296374967444    -0.801585713866     1.007825032230
         H            1.358700435529    -0.336930967444     1.521835286134     1.007825032230
         H            2.079499435529    -0.254122967444    -1.472602713866     1.007825032230
         H            1.581274435529     1.149775032556    -0.538634713866     1.007825032230
         H            3.613117435529     0.916236032556     0.917253286134     1.007825032230
         H            4.134067435529    -0.464272967444    -0.046640713866     1.007825032230
         H            4.051590435529     1.143853032556    -0.775641713866     1.007825032230
         C           -2.826762564471    -1.272623967444    -0.348939713866    12.000000000000
         H           -1.988876564471    -1.782493967444    -0.826794713866     1.007825032230
         H           -3.529849564471    -0.981175967444    -1.130635713866     1.007825032230
         H           -3.328164564471    -1.987753967444     0.303108286134     1.007825032230
         C           -2.336767564471    -0.053607967444     0.421157286134    12.000000000000
         H           -3.176028564471     0.429615032556     0.929374286134     1.007825032230
         H           -1.637079564471    -0.368536967444     1.199746286134     1.007825032230
         C           -1.644804564471     0.960899032556    -0.479782713866    12.000000000000
         H           -2.350010564471     1.306025032556    -1.241145713866     1.007825032230
         H           -0.830003564471     0.461567032556    -1.010807713866     1.007825032230
         C           -1.100411564471     2.151466032556     0.298831286134    12.000000000000
         H           -0.373188564471     1.822658032556     1.043368286134     1.007825032230
         H           -0.610303564471     2.873562032556    -0.354669713866     1.007825032230
         H           -1.902510564471     2.669073032556     0.827113286134     1.007825032230

  Running in c1 symmetry.

  Rotational constants: A =      0.07892  B =      0.02868  C =      0.02276 [cm^-1]
  Rotational constants: A =   2365.82000  B =    859.75735  C =    682.45477 [MHz]
  Nuclear repulsion =  377.950953270861987

  Charge       = 0
  Multiplicity = 1
  Electrons    = 66
  Nalpha       = 33
  Nbeta        = 33

  ==> Algorithm <==

  SCF Algorithm Type is DF.
  DIIS enabled.
  MOM disabled.
  Fractional occupation disabled.
  Guess Type is SAD.
  Energy threshold   = 1.00e-08
  Density threshold  = 1.00e-08
  Integral threshold = 0.00e+00

  ==> Primary Basis <==

  Basis Set: JUN-CC-PVTZ
    Blend: JUN-CC-PVTZ
    Number of shells: 212
    Number of basis function: 564
    Number of Cartesian functions: 630
    Spherical Harmonics?: true
    Max angular momentum: 3

   => Loading Basis Set <=

    Name: (JUN-CC-PVTZ AUX)
    Role: JKFIT
    Keyword: DF_BASIS_SCF
    atoms 1-4, 13, 17, 20, 23              entry C          line   152 file /home/r08543048/miniconda3/share/psi4/basis/jun-cc-pvtz-jkfit.gbs 
    atoms 5-12, 14-16, 18-19, 21-22, 24-26 entry H          line    70 file /home/r08543048/miniconda3/share/psi4/basis/jun-cc-pvtz-jkfit.gbs 

  ==> Pre-Iterations <==

   -------------------------------------------------------
    Irrep   Nso     Nmo     Nalpha   Nbeta   Ndocc  Nsocc
   -------------------------------------------------------
     A        564     564       0       0       0       0
   -------------------------------------------------------
    Total     564     564      33      33      33       0
   -------------------------------------------------------

  ==> Integral Setup <==

  ==> DiskDFJK: Density-Fitted J/K Matrices <==

    J tasked:                  Yes
    K tasked:                  Yes
    wK tasked:                  No
    OpenMP threads:              1
    Integrals threads:           1
    Memory [MiB]:            15735
    Algorithm:                Core
    Integral Cache:           SAVE
    Schwarz Cutoff:          1E-12
    Fitting Condition:       1E-10

   => Auxiliary Basis Set <=

  Basis Set: (JUN-CC-PVTZ AUX)
    Blend: JUN-CC-PVTZ-JKFIT
    Number of shells: 412
    Number of basis function: 1300
    Number of Cartesian functions: 1558
    Spherical Harmonics?: true
    Max angular momentum: 4

  Minimum eigenvalue in the overlap matrix is 2.6048692662E-05.
  Using Symmetric Orthogonalization.

  SCF Guess: Superposition of Atomic Densities via on-the-fly atomic UHF.

  ==> Iterations <==

                           Total Energy        Delta E     RMS |[F,P]|

   @DF-RHF iter SAD:  -312.34004184240598   -3.12340e+02   0.00000e+00 
   @DF-RHF iter   1:  -313.14208638206765   -8.02045e-01   1.37399e-03 DIIS
   @DF-RHF iter   2:  -313.44693824694252   -3.04852e-01   6.25290e-04 DIIS
   @DF-RHF iter   3:  -313.51191686352621   -6.49786e-02   1.17576e-04 DIIS
   @DF-RHF iter   4:  -313.51622040214164   -4.30354e-03   3.74749e-05 DIIS
   @DF-RHF iter   5:  -313.51650523971671   -2.84838e-04   8.54405e-06 DIIS
   @DF-RHF iter   6:  -313.51652521046367   -1.99707e-05   2.01036e-06 DIIS
   @DF-RHF iter   7:  -313.51652624801437   -1.03755e-06   5.71082e-07 DIIS
   @DF-RHF iter   8:  -313.51652634246227   -9.44479e-08   1.22139e-07 DIIS
   @DF-RHF iter   9:  -313.51652634940064   -6.93836e-09   4.70970e-08 DIIS
   @DF-RHF iter  10:  -313.51652635051988   -1.11925e-09   1.70830e-08 DIIS
   @DF-RHF iter  11:  -313.51652635065085   -1.30967e-10   5.41683e-09 DIIS
  Energy and wave function converged.


  ==> Post-Iterations <==

    Orbital Energies [Eh]
    ---------------------

    Doubly Occupied:                                                      

       1A    -11.231797     2A    -11.225013     3A    -11.218281  
       4A    -11.214913     5A    -11.208263     6A    -11.207364  
       7A    -11.206201     8A    -11.202984     9A     -1.082565  
      10A     -1.067202    11A     -0.989071    12A     -0.977058  
      13A     -0.857259    14A     -0.856487    15A     -0.783298  
      16A     -0.756863    17A     -0.647470    18A     -0.633804  
      19A     -0.607562    20A     -0.587017    21A     -0.580679  
      22A     -0.572347    23A     -0.563703    24A     -0.536272  
      25A     -0.517834    26A     -0.510598    27A     -0.491321  
      28A     -0.486678    29A     -0.477959    30A     -0.465010  
      31A     -0.457405    32A     -0.451965    33A     -0.358145  

    Virtual:                                                              

      34A      0.048214    35A      0.050652    36A      0.055046  
      37A      0.056735    38A      0.066922    39A      0.075256  
      40A      0.076153    41A      0.080181    42A      0.087686  
      43A      0.098380    44A      0.102152    45A      0.106942  
      46A      0.115398    47A      0.117726    48A      0.119941  
      49A      0.127545    50A      0.131950    51A      0.138172  
      52A      0.144179    53A      0.149239    54A      0.155377  
      55A      0.165764    56A      0.167284    57A      0.179465  
      58A      0.185215    59A      0.187215    60A      0.193938  
      61A      0.196657    62A      0.206141    63A      0.215635  
      64A      0.219277    65A      0.231134    66A      0.239477  
      67A      0.258893    68A      0.272007    69A      0.275905  
      70A      0.281521    71A      0.285268    72A      0.295742  
      73A      0.298886    74A      0.301640    75A      0.306002  
      76A      0.312531    77A      0.319077    78A      0.321255  
      79A      0.325590    80A      0.330488    81A      0.335318  
      82A      0.341268    83A      0.346794    84A      0.349136  
      85A      0.352690    86A      0.356919    87A      0.359686  
      88A      0.365540    89A      0.371432    90A      0.377019  
      91A      0.382093    92A      0.386131    93A      0.392277  
      94A      0.395946    95A      0.399293    96A      0.406349  
      97A      0.416581    98A      0.421065    99A      0.425617  
     100A      0.436979   101A      0.441488   102A      0.453141  
     103A      0.459747   104A      0.465927   105A      0.472057  
     106A      0.473741   107A      0.482415   108A      0.496697  
     109A      0.502632   110A      0.505289   111A      0.523146  
     112A      0.525900   113A      0.530634   114A      0.532300  
     115A      0.538369   116A      0.546477   117A      0.551418  
     118A      0.557894   119A      0.571436   120A      0.572850  
     121A      0.575761   122A      0.587028   123A      0.592772  
     124A      0.600078   125A      0.606674   126A      0.614173  
     127A      0.619049   128A      0.640465   129A      0.650473  
     130A      0.654392   131A      0.667603   132A      0.677176  
     133A      0.689267   134A      0.709532   135A      0.718021  
     136A      0.722286   137A      0.739464   138A      0.742989  
     139A      0.753236   140A      0.759779   141A      0.766537  
     142A      0.770163   143A      0.772912   144A      0.784138  
     145A      0.796792   146A      0.802615   147A      0.805678  
     148A      0.815757   149A      0.819663   150A      0.825729  
     151A      0.829830   152A      0.837508   153A      0.845501  
     154A      0.848239   155A      0.854831   156A      0.860683  
     157A      0.867553   158A      0.868684   159A      0.878311  
     160A      0.889592   161A      0.897020   162A      0.907327  
     163A      0.917455   164A      0.927000   165A      0.929476  
     166A      0.936138   167A      0.951148   168A      0.952955  
     169A      0.964330   170A      0.974308   171A      0.978542  
     172A      1.005858   173A      1.019975   174A      1.025670  
     175A      1.033743   176A      1.038642   177A      1.059839  
     178A      1.064353   179A      1.085574   180A      1.091711  
     181A      1.106686   182A      1.118469   183A      1.126728  
     184A      1.137685   185A      1.158756   186A      1.170525  
     187A      1.181886   188A      1.196684   189A      1.210815  
     190A      1.218025   191A      1.230618   192A      1.242217  
     193A      1.258736   194A      1.259217   195A      1.272491  
     196A      1.280480   197A      1.289347   198A      1.311741  
     199A      1.323804   200A      1.332484   201A      1.339481  
     202A      1.345483   203A      1.351586   204A      1.369040  
     205A      1.374545   206A      1.378960   207A      1.391418  
     208A      1.394015   209A      1.399599   210A      1.406002  
     211A      1.418015   212A      1.430055   213A      1.434624  
     214A      1.449831   215A      1.465954   216A      1.469048  
     217A      1.477942   218A      1.489664   219A      1.498492  
     220A      1.504875   221A      1.510198   222A      1.518016  
     223A      1.525150   224A      1.536479   225A      1.546936  
     226A      1.565625   227A      1.571316   228A      1.576377  
     229A      1.585629   230A      1.601835   231A      1.606466  
     232A      1.618114   233A      1.618883   234A      1.628377  
     235A      1.633848   236A      1.636045   237A      1.644392  
     238A      1.658778   239A      1.666584   240A      1.678308  
     241A      1.688889   242A      1.696109   243A      1.714061  
     244A      1.715603   245A      1.725696   246A      1.748105  
     247A      1.763236   248A      1.776102   249A      1.785486  
     250A      1.798825   251A      1.806942   252A      1.816677  
     253A      1.826327   254A      1.847386   255A      1.854762  
     256A      1.867075   257A      1.885792   258A      1.898964  
     259A      1.904197   260A      1.926344   261A      1.934402  
     262A      1.937019   263A      1.943983   264A      1.962338  
     265A      1.975904   266A      1.998557   267A      2.023778  
     268A      2.046580   269A      2.063545   270A      2.084298  
     271A      2.097815   272A      2.147436   273A      2.181791  
     274A      2.271448   275A      2.725274   276A      2.741311  
     277A      2.747859   278A      2.759663   279A      2.782540  
     280A      2.790454   281A      2.816145   282A      2.823079  
     283A      2.832243   284A      2.842713   285A      2.860059  
     286A      2.869041   287A      2.872657   288A      2.884035  
     289A      2.894823   290A      2.909785   291A      2.914895  
     292A      2.922611   293A      2.927709   294A      2.950076  
     295A      2.956035   296A      2.972192   297A      2.982384  
     298A      3.006177   299A      3.012457   300A      3.030789  
     301A      3.030938   302A      3.060472   303A      3.065703  
     304A      3.087032   305A      3.096001   306A      3.101574  
     307A      3.120609   308A      3.131838   309A      3.134556  
     310A      3.141614   311A      3.144914   312A      3.153322  
     313A      3.158265   314A      3.163985   315A      3.185087  
     316A      3.188748   317A      3.207023   318A      3.217800  
     319A      3.230253   320A      3.252937   321A      3.254945  
     322A      3.260339   323A      3.271231   324A      3.279124  
     325A      3.287936   326A      3.298807   327A      3.315743  
     328A      3.318458   329A      3.330032   330A      3.338088  
     331A      3.347507   332A      3.357311   333A      3.365413  
     334A      3.369560   335A      3.396108   336A      3.399391  
     337A      3.403482   338A      3.412211   339A      3.413565  
     340A      3.422585   341A      3.431449   342A      3.434959  
     343A      3.444527   344A      3.447637   345A      3.461597  
     346A      3.472840   347A      3.481382   348A      3.483605  
     349A      3.497050   350A      3.501406   351A      3.503267  
     352A      3.515025   353A      3.519206   354A      3.529473  
     355A      3.530539   356A      3.548090   357A      3.558946  
     358A      3.565404   359A      3.578229   360A      3.584770  
     361A      3.589625   362A      3.599805   363A      3.603360  
     364A      3.617502   365A      3.624032   366A      3.652024  
     367A      3.657678   368A      3.661390   369A      3.670981  
     370A      3.679475   371A      3.693280   372A      3.713111  
     373A      3.720221   374A      3.734790   375A      3.739211  
     376A      3.748071   377A      3.760429   378A      3.764878  
     379A      3.780928   380A      3.801220   381A      3.812797  
     382A      3.828301   383A      3.838186   384A      3.846863  
     385A      3.853191   386A      3.861314   387A      3.870632  
     388A      3.885713   389A      3.893552   390A      3.899749  
     391A      3.925681   392A      3.955286   393A      3.958562  
     394A      3.967543   395A      3.972648   396A      3.979055  
     397A      3.983985   398A      3.989065   399A      4.003091  
     400A      4.011429   401A      4.020064   402A      4.049055  
     403A      4.056988   404A      4.080666   405A      4.106843  
     406A      4.118991   407A      4.137676   408A      4.163704  
     409A      4.182370   410A      4.190296   411A      4.195359  
     412A      4.212054   413A      4.227272   414A      4.232807  
     415A      4.239627   416A      4.245367   417A      4.259659  
     418A      4.276669   419A      4.287576   420A      4.296273  
     421A      4.304846   422A      4.310026   423A      4.318453  
     424A      4.328422   425A      4.340977   426A      4.347577  
     427A      4.358653   428A      4.368056   429A      4.374904  
     430A      4.386649   431A      4.392369   432A      4.403567  
     433A      4.408483   434A      4.417964   435A      4.432185  
     436A      4.440066   437A      4.445791   438A      4.448142  
     439A      4.461389   440A      4.463343   441A      4.471166  
     442A      4.472804   443A      4.496844   444A      4.505258  
     445A      4.519895   446A      4.531905   447A      4.537792  
     448A      4.547937   449A      4.556442   450A      4.563160  
     451A      4.568711   452A      4.572473   453A      4.603514  
     454A      4.605961   455A      4.633009   456A      4.634852  
     457A      4.643044   458A      4.662172   459A      4.671878  
     460A      4.690369   461A      4.698467   462A      4.709525  
     463A      4.722684   464A      4.745231   465A      4.753276  
     466A      4.755828   467A      4.788890   468A      4.807446  
     469A      4.818109   470A      4.832807   471A      4.849736  
     472A      4.879306   473A      4.897167   474A      4.909686  
     475A      4.911797   476A      4.921024   477A      4.963954  
     478A      4.965557   479A      4.994722   480A      5.012132  
     481A      5.046208   482A      5.064270   483A      5.082904  
     484A      5.112028   485A      5.124373   486A      5.133260  
     487A      5.142443   488A      5.167958   489A      5.201705  
     490A      5.228869   491A      5.237147   492A      5.251178  
     493A      5.251923   494A      5.270542   495A      5.275818  
     496A      5.286155   497A      5.301578   498A      5.305897  
     499A      5.313605   500A      5.320897   501A      5.329444  
     502A      5.363333   503A      5.368239   504A      5.371431  
     505A      5.380686   506A      5.404107   507A      5.417108  
     508A      5.437822   509A      5.439700   510A      5.457643  
     511A      5.475898   512A      5.508614   513A      5.542773  
     514A      5.565001   515A      5.584905   516A      5.623583  
     517A      5.633175   518A      5.662593   519A      5.673962  
     520A      5.676348   521A      5.727506   522A      5.745918  
     523A      5.754602   524A      5.762222   525A      5.765812  
     526A      5.781946   527A      5.789647   528A      5.805586  
     529A      5.817797   530A      5.826672   531A      5.866465  
     532A      5.910057   533A      5.918228   534A      5.920088  
     535A      5.930519   536A      5.954152   537A      5.966983  
     538A      5.974759   539A      5.993722   540A      6.018776  
     541A      6.030847   542A      6.092555   543A      6.196356  
     544A      6.203756   545A      6.415597   546A      6.480154  
     547A      6.497999   548A      6.502204   549A      6.508173  
     550A      6.525736   551A      6.557714   552A      6.561697  
     553A      6.585576   554A      6.614783   555A      6.658148  
     556A      6.722515   557A     12.495547   558A     13.715680  
     559A     14.141612   560A     14.319269   561A     14.495258  
     562A     14.572677   563A     14.736079   564A     15.420483  

    Final Occupation by Irrep:
              A 
    DOCC [    33 ]

  @DF-RHF Final Energy:  -313.51652635065085

   => Energetics <=

    Nuclear Repulsion Energy =            377.9509532708619872
    One-Electron Energy =               -1170.8741821677062944
    Two-Electron Energy =                 479.4067025461934577
    Total Energy =                       -313.5165263506508495

Computation Completed


Properties will be evaluated at   0.000000,   0.000000,   0.000000 [a0]

Properties computed using the SCF density matrix

  Nuclear Dipole Moment: [e a0]
     X:    -1.3886      Y:     1.6751      Z:    -0.4672

  Electronic Dipole Moment: [e a0]
     X:     1.5009      Y:    -1.5632      Z:     0.4316

  Dipole Moment: [e a0]
     X:     0.1123      Y:     0.1119      Z:    -0.0356     Total:     0.1625

  Dipole Moment: [D]
     X:     0.2855      Y:     0.2845      Z:    -0.0905     Total:     0.4130


*** tstop() called on r282 at Fri Sep 10 21:34:06 2021
Module time:
	user time   =      90.77 seconds =       1.51 minutes
	system time =       1.88 seconds =       0.03 minutes
	total time  =         93 seconds =       1.55 minutes
Total time:
	user time   =      90.77 seconds =       1.51 minutes
	system time =       1.88 seconds =       0.03 minutes
	total time  =         93 seconds =       1.55 minutes

  //>>>>>>>>>>>>>>>>>>>>>>>>>>>>>>>>>>>//
  //            Monomer A HF           //
  //<<<<<<<<<<<<<<<<<<<<<<<<<<<<<<<<<<<//


*** tstart() called on r282
*** at Fri Sep 10 21:34:06 2021

   => Loading Basis Set <=

    Name: JUN-CC-PVTZ
    Role: ORBITAL
    Keyword: BASIS
    atoms 1-4, 13, 17, 20, 23              entry C          line   217 file /home/r08543048/miniconda3/share/psi4/basis/jun-cc-pvtz.gbs 
    atoms 5-12, 14-16, 18-19, 21-22, 24-26 entry H          line    36 file /home/r08543048/miniconda3/share/psi4/basis/jun-cc-pvtz.gbs 


         ---------------------------------------------------------
                                   SCF
               by Justin Turney, Rob Parrish, Andy Simmonett
                          and Daniel G. A. Smith
                              RHF Reference
                        1 Threads,  20980 MiB Core
         ---------------------------------------------------------

  ==> Geometry <==

    Molecular point group: c1
    Full point group: C1

    Geometry (in Angstrom), charge = 0, multiplicity = 1:

       Center              X                  Y                   Z               Mass       
    ------------   -----------------  -----------------  -----------------  -----------------
         C            0.923546435529    -1.901136967444     0.205477286134    12.000000000000
         C            1.426755435529    -0.698366967444     0.498813286134    12.000000000000
         C            2.116291435529     0.197892032556    -0.479184713866    12.000000000000
         C            3.566554435529     0.465408032556    -0.074517713866    12.000000000000
         H            0.448212435529    -2.513834967444     0.959008286134     1.007825032230
         H            0.978326435529    -2.296374967444    -0.801585713866     1.007825032230
         H            1.358700435529    -0.336930967444     1.521835286134     1.007825032230
         H            2.079499435529    -0.254122967444    -1.472602713866     1.007825032230
         H            1.581274435529     1.149775032556    -0.538634713866     1.007825032230
         H            3.613117435529     0.916236032556     0.917253286134     1.007825032230
         H            4.134067435529    -0.464272967444    -0.046640713866     1.007825032230
         H            4.051590435529     1.143853032556    -0.775641713866     1.007825032230
      Gh(C)          -2.826762564471    -1.272623967444    -0.348939713866    12.000000000000
      Gh(H)          -1.988876564471    -1.782493967444    -0.826794713866     1.007825032230
      Gh(H)          -3.529849564471    -0.981175967444    -1.130635713866     1.007825032230
      Gh(H)          -3.328164564471    -1.987753967444     0.303108286134     1.007825032230
      Gh(C)          -2.336767564471    -0.053607967444     0.421157286134    12.000000000000
      Gh(H)          -3.176028564471     0.429615032556     0.929374286134     1.007825032230
      Gh(H)          -1.637079564471    -0.368536967444     1.199746286134     1.007825032230
      Gh(C)          -1.644804564471     0.960899032556    -0.479782713866    12.000000000000
      Gh(H)          -2.350010564471     1.306025032556    -1.241145713866     1.007825032230
      Gh(H)          -0.830003564471     0.461567032556    -1.010807713866     1.007825032230
      Gh(C)          -1.100411564471     2.151466032556     0.298831286134    12.000000000000
      Gh(H)          -0.373188564471     1.822658032556     1.043368286134     1.007825032230
      Gh(H)          -0.610303564471     2.873562032556    -0.354669713866     1.007825032230
      Gh(H)          -1.902510564471     2.669073032556     0.827113286134     1.007825032230

  Running in c1 symmetry.

  Rotational constants: A =      0.07892  B =      0.02868  C =      0.02276 [cm^-1]
  Rotational constants: A =   2365.82000  B =    859.75735  C =    682.45477 [MHz]
  Nuclear repulsion =  117.489529773552036

  Charge       = 0
  Multiplicity = 1
  Electrons    = 32
  Nalpha       = 16
  Nbeta        = 16

  ==> Algorithm <==

  SCF Algorithm Type is DF.
  DIIS enabled.
  MOM disabled.
  Fractional occupation disabled.
  Guess Type is SAD.
  Energy threshold   = 1.00e-08
  Density threshold  = 1.00e-08
  Integral threshold = 0.00e+00

  ==> Primary Basis <==

  Basis Set: JUN-CC-PVTZ
    Blend: JUN-CC-PVTZ
    Number of shells: 212
    Number of basis function: 564
    Number of Cartesian functions: 630
    Spherical Harmonics?: true
    Max angular momentum: 3

   => Loading Basis Set <=

    Name: (JUN-CC-PVTZ AUX)
    Role: JKFIT
    Keyword: DF_BASIS_SCF
    atoms 1-4, 13, 17, 20, 23              entry C          line   152 file /home/r08543048/miniconda3/share/psi4/basis/jun-cc-pvtz-jkfit.gbs 
    atoms 5-12, 14-16, 18-19, 21-22, 24-26 entry H          line    70 file /home/r08543048/miniconda3/share/psi4/basis/jun-cc-pvtz-jkfit.gbs 

  ==> Pre-Iterations <==

   -------------------------------------------------------
    Irrep   Nso     Nmo     Nalpha   Nbeta   Ndocc  Nsocc
   -------------------------------------------------------
     A        564     564       0       0       0       0
   -------------------------------------------------------
    Total     564     564      16      16      16       0
   -------------------------------------------------------

  ==> Integral Setup <==

  ==> DiskDFJK: Density-Fitted J/K Matrices <==

    J tasked:                  Yes
    K tasked:                  Yes
    wK tasked:                  No
    OpenMP threads:              1
    Integrals threads:           1
    Memory [MiB]:            15735
    Algorithm:                Core
    Integral Cache:           LOAD
    Schwarz Cutoff:          1E-12
    Fitting Condition:       1E-10

   => Auxiliary Basis Set <=

  Basis Set: (JUN-CC-PVTZ AUX)
    Blend: JUN-CC-PVTZ-JKFIT
    Number of shells: 412
    Number of basis function: 1300
    Number of Cartesian functions: 1558
    Spherical Harmonics?: true
    Max angular momentum: 4

  Minimum eigenvalue in the overlap matrix is 2.6048692662E-05.
  Using Symmetric Orthogonalization.

  SCF Guess: Superposition of Atomic Densities via on-the-fly atomic UHF.

  ==> Iterations <==

                           Total Energy        Delta E     RMS |[F,P]|

   @DF-RHF iter SAD:  -155.38414315811329   -1.55384e+02   0.00000e+00 
   @DF-RHF iter   1:  -155.99472253235632   -6.10579e-01   9.27254e-04 DIIS
   @DF-RHF iter   2:  -156.13448602572302   -1.39763e-01   4.10865e-04 DIIS
   @DF-RHF iter   3:  -156.16247498323591   -2.79890e-02   7.91874e-05 DIIS
   @DF-RHF iter   4:  -156.16431479862896   -1.83982e-03   2.92309e-05 DIIS
   @DF-RHF iter   5:  -156.16448142148462   -1.66623e-04   5.48822e-06 DIIS
   @DF-RHF iter   6:  -156.16449025078055   -8.82930e-06   1.00243e-06 DIIS
   @DF-RHF iter   7:  -156.16449060456830   -3.53788e-07   2.69192e-07 DIIS
   @DF-RHF iter   8:  -156.16449063051897   -2.59507e-08   7.97239e-08 DIIS
   @DF-RHF iter   9:  -156.16449063308033   -2.56136e-09   3.41388e-08 DIIS
   @DF-RHF iter  10:  -156.16449063359849   -5.18156e-10   1.09174e-08 DIIS
   @DF-RHF iter  11:  -156.16449063365729   -5.88045e-11   2.75018e-09 DIIS
  Energy and wave function converged.


  ==> Post-Iterations <==

    Orbital Energies [Eh]
    ---------------------

    Doubly Occupied:                                                      

       1A    -11.231294     2A    -11.224840     3A    -11.217609  
       4A    -11.214541     5A     -1.081111     6A     -0.988076  
       7A     -0.856101     8A     -0.755535     9A     -0.643663  
      10A     -0.606621    11A     -0.585119    12A     -0.535370  
      13A     -0.517696    14A     -0.486798    15A     -0.476972  
      16A     -0.357281  

    Virtual:                                                              

      17A      0.032144    18A      0.042776    19A      0.050858  
      20A      0.052839    21A      0.063483    22A      0.071269  
      23A      0.072974    24A      0.077815    25A      0.084354  
      26A      0.095979    27A      0.099246    28A      0.104200  
      29A      0.107179    30A      0.115073    31A      0.116107  
      32A      0.119085    33A      0.126364    34A      0.132588  
      35A      0.138481    36A      0.141095    37A      0.145264  
      38A      0.151682    39A      0.159635    40A      0.168360  
      41A      0.172036    42A      0.177323    43A      0.180637  
      44A      0.186832    45A      0.188463    46A      0.192962  
      47A      0.209269    48A      0.214825    49A      0.223480  
      50A      0.242714    51A      0.260527    52A      0.271124  
      53A      0.281414    54A      0.284620    55A      0.286090  
      56A      0.288102    57A      0.292693    58A      0.299002  
      59A      0.308453    60A      0.316559    61A      0.320574  
      62A      0.325460    63A      0.330408    64A      0.333929  
      65A      0.338726    66A      0.341757    67A      0.349692  
      68A      0.356226    69A      0.363387    70A      0.367945  
      71A      0.370251    72A      0.373752    73A      0.381302  
      74A      0.383091    75A      0.384006    76A      0.399177  
      77A      0.400045    78A      0.405216    79A      0.414451  
      80A      0.423104    81A      0.425466    82A      0.434792  
      83A      0.439085    84A      0.442075    85A      0.448794  
      86A      0.457262    87A      0.472706    88A      0.480066  
      89A      0.487578    90A      0.494235    91A      0.500756  
      92A      0.502669    93A      0.513604    94A      0.517511  
      95A      0.530089    96A      0.535446    97A      0.540846  
      98A      0.548011    99A      0.551622   100A      0.558072  
     101A      0.568807   102A      0.577113   103A      0.577966  
     104A      0.583451   105A      0.602446   106A      0.605804  
     107A      0.607928   108A      0.615817   109A      0.628719  
     110A      0.631627   111A      0.638216   112A      0.644270  
     113A      0.655677   114A      0.663008   115A      0.670367  
     116A      0.676536   117A      0.680135   118A      0.690814  
     119A      0.693083   120A      0.703920   121A      0.715705  
     122A      0.717498   123A      0.727611   124A      0.743196  
     125A      0.746413   126A      0.758877   127A      0.760381  
     128A      0.775329   129A      0.789122   130A      0.806927  
     131A      0.811667   132A      0.818743   133A      0.824719  
     134A      0.828653   135A      0.840555   136A      0.852646  
     137A      0.874254   138A      0.877121   139A      0.891725  
     140A      0.907132   141A      0.916189   142A      0.920545  
     143A      0.931551   144A      0.954786   145A      0.969086  
     146A      0.988410   147A      1.017701   148A      1.027177  
     149A      1.033971   150A      1.040111   151A      1.061220  
     152A      1.071543   153A      1.086440   154A      1.099227  
     155A      1.118935   156A      1.121449   157A      1.127041  
     158A      1.138486   159A      1.152350   160A      1.155275  
     161A      1.161407   162A      1.178197   163A      1.189389  
     164A      1.196616   165A      1.213363   166A      1.224712  
     167A      1.233513   168A      1.235689   169A      1.240246  
     170A      1.248899   171A      1.266882   172A      1.271733  
     173A      1.273331   174A      1.280274   175A      1.285467  
     176A      1.292494   177A      1.304386   178A      1.309368  
     179A      1.325962   180A      1.333290   181A      1.338923  
     182A      1.350085   183A      1.355049   184A      1.369362  
     185A      1.372395   186A      1.373723   187A      1.381947  
     188A      1.389418   189A      1.394015   190A      1.409281  
     191A      1.415745   192A      1.418610   193A      1.423921  
     194A      1.436461   195A      1.446582   196A      1.456326  
     197A      1.463916   198A      1.467342   199A      1.482103  
     200A      1.498250   201A      1.508130   202A      1.511815  
     203A      1.523880   204A      1.534698   205A      1.545046  
     206A      1.549095   207A      1.555295   208A      1.561365  
     209A      1.576102   210A      1.580434   211A      1.585493  
     212A      1.602108   213A      1.609797   214A      1.618779  
     215A      1.629338   216A      1.636609   217A      1.648443  
     218A      1.654683   219A      1.657465   220A      1.677265  
     221A      1.683744   222A      1.692012   223A      1.705579  
     224A      1.724170   225A      1.737776   226A      1.741736  
     227A      1.751185   228A      1.758573   229A      1.768992  
     230A      1.777887   231A      1.799921   232A      1.810945  
     233A      1.822768   234A      1.845546   235A      1.855064  
     236A      1.871164   237A      1.876401   238A      1.892544  
     239A      1.902317   240A      1.920073   241A      1.933263  
     242A      1.948582   243A      1.957735   244A      1.972561  
     245A      1.993666   246A      2.016051   247A      2.048423  
     248A      2.092648   249A      2.104572   250A      2.115271  
     251A      2.122493   252A      2.149549   253A      2.177817  
     254A      2.190687   255A      2.236440   256A      2.257033  
     257A      2.284763   258A      2.319158   259A      2.337823  
     260A      2.342383   261A      2.402180   262A      2.420212  
     263A      2.443659   264A      2.481916   265A      2.495523  
     266A      2.533070   267A      2.628063   268A      2.643816  
     269A      2.673773   270A      2.678035   271A      2.753799  
     272A      2.770859   273A      2.799564   274A      2.830315  
     275A      2.852198   276A      2.863749   277A      2.869712  
     278A      2.896643   279A      2.921214   280A      2.950143  
     281A      2.975038   282A      2.994068   283A      3.036101  
     284A      3.052970   285A      3.058085   286A      3.094144  
     287A      3.111316   288A      3.122959   289A      3.135086  
     290A      3.146113   291A      3.172345   292A      3.218205  
     293A      3.224326   294A      3.253236   295A      3.257683  
     296A      3.279386   297A      3.304640   298A      3.322546  
     299A      3.343759   300A      3.352958   301A      3.382594  
     302A      3.391777   303A      3.411881   304A      3.426430  
     305A      3.439489   306A      3.453986   307A      3.463368  
     308A      3.482552   309A      3.501425   310A      3.504682  
     311A      3.516642   312A      3.531321   313A      3.534912  
     314A      3.546152   315A      3.555956   316A      3.560445  
     317A      3.572575   318A      3.584262   319A      3.588726  
     320A      3.599201   321A      3.604384   322A      3.608465  
     323A      3.619380   324A      3.628058   325A      3.644653  
     326A      3.651509   327A      3.672866   328A      3.682835  
     329A      3.690785   330A      3.697301   331A      3.709499  
     332A      3.723838   333A      3.739215   334A      3.752789  
     335A      3.772481   336A      3.790379   337A      3.802871  
     338A      3.811648   339A      3.822645   340A      3.832189  
     341A      3.839270   342A      3.849330   343A      3.850739  
     344A      3.861267   345A      3.864760   346A      3.876953  
     347A      3.886992   348A      3.901542   349A      3.905326  
     350A      3.910097   351A      3.921412   352A      3.929557  
     353A      3.939158   354A      3.954529   355A      3.976334  
     356A      3.980285   357A      4.001453   358A      4.017828  
     359A      4.023984   360A      4.051097   361A      4.068631  
     362A      4.077898   363A      4.084719   364A      4.099138  
     365A      4.114383   366A      4.137459   367A      4.139235  
     368A      4.158106   369A      4.177667   370A      4.183235  
     371A      4.188547   372A      4.214579   373A      4.230358  
     374A      4.233487   375A      4.247247   376A      4.263916  
     377A      4.277505   378A      4.289678   379A      4.313484  
     380A      4.317049   381A      4.321700   382A      4.338742  
     383A      4.349131   384A      4.360233   385A      4.366343  
     386A      4.377403   387A      4.382154   388A      4.393827  
     389A      4.401285   390A      4.422356   391A      4.435114  
     392A      4.440090   393A      4.454214   394A      4.457266  
     395A      4.465206   396A      4.470299   397A      4.492348  
     398A      4.500535   399A      4.508492   400A      4.511923  
     401A      4.520362   402A      4.527403   403A      4.547132  
     404A      4.554281   405A      4.558952   406A      4.572406  
     407A      4.594180   408A      4.599294   409A      4.605556  
     410A      4.617424   411A      4.626412   412A      4.636174  
     413A      4.648722   414A      4.662615   415A      4.669025  
     416A      4.681340   417A      4.690426   418A      4.694753  
     419A      4.715387   420A      4.725697   421A      4.733452  
     422A      4.745200   423A      4.754296   424A      4.756989  
     425A      4.772964   426A      4.785879   427A      4.791499  
     428A      4.793094   429A      4.803211   430A      4.809071  
     431A      4.830864   432A      4.845351   433A      4.860938  
     434A      4.864791   435A      4.877743   436A      4.888274  
     437A      4.899108   438A      4.906000   439A      4.909111  
     440A      4.916876   441A      4.926824   442A      4.937383  
     443A      4.942545   444A      4.947539   445A      4.956411  
     446A      4.960068   447A      4.965422   448A      4.981111  
     449A      4.992569   450A      4.995736   451A      5.007093  
     452A      5.019572   453A      5.033252   454A      5.039547  
     455A      5.055987   456A      5.074814   457A      5.087997  
     458A      5.097527   459A      5.117184   460A      5.129634  
     461A      5.172387   462A      5.193563   463A      5.206315  
     464A      5.206877   465A      5.233126   466A      5.241724  
     467A      5.243022   468A      5.254806   469A      5.265267  
     470A      5.289726   471A      5.293094   472A      5.306722  
     473A      5.325356   474A      5.352889   475A      5.369348  
     476A      5.370867   477A      5.392857   478A      5.406554  
     479A      5.421566   480A      5.441614   481A      5.462009  
     482A      5.491058   483A      5.512429   484A      5.522766  
     485A      5.555797   486A      5.571268   487A      5.589256  
     488A      5.625249   489A      5.642957   490A      5.663513  
     491A      5.676432   492A      5.691157   493A      5.732956  
     494A      5.747213   495A      5.761467   496A      5.787026  
     497A      5.794924   498A      5.817742   499A      5.830536  
     500A      5.836795   501A      5.917691   502A      5.919075  
     503A      5.935198   504A      5.951836   505A      5.962083  
     506A      6.024186   507A      6.034136   508A      6.042755  
     509A      6.072935   510A      6.108228   511A      6.141932  
     512A      6.202616   513A      6.268877   514A      6.332647  
     515A      6.349585   516A      6.386938   517A      6.393193  
     518A      6.402069   519A      6.421795   520A      6.438289  
     521A      6.476132   522A      6.488344   523A      6.492967  
     524A      6.504602   525A      6.511127   526A      6.521811  
     527A      6.559396   528A      6.622587   529A      6.720529  
     530A      6.750719   531A      6.802497   532A      6.823484  
     533A      6.952122   534A      7.062582   535A      7.275634  
     536A      7.515386   537A      7.544933   538A      7.585055  
     539A      7.592409   540A      7.603505   541A      7.673933  
     542A      7.723949   543A      7.749071   544A      7.815589  
     545A      7.820019   546A      7.850108   547A      7.938417  
     548A      7.948441   549A      8.115076   550A      8.297784  
     551A      8.451805   552A      8.652893   553A      9.612833  
     554A      9.709970   555A      9.903768   556A      9.961077  
     557A     12.501301   558A     14.124624   559A     14.496387  
     560A     15.413244   561A     43.928497   562A     45.453146  
     563A     45.610149   564A     45.863371  

    Final Occupation by Irrep:
              A 
    DOCC [    16 ]

  @DF-RHF Final Energy:  -156.16449063365729

   => Energetics <=

    Nuclear Repulsion Energy =            117.4895297735520359
    One-Electron Energy =                -441.7507896840022568
    Two-Electron Energy =                 168.0967692767929407
    Total Energy =                       -156.1644906336572944

Computation Completed


Properties will be evaluated at   0.000000,   0.000000,   0.000000 [a0]

Properties computed using the SCF density matrix

  Nuclear Dipole Moment: [e a0]
     X:   125.5603      Y:   -26.9719      Z:     1.2595

  Electronic Dipole Moment: [e a0]
     X:  -125.4717      Y:    27.1147      Z:    -1.2948

  Dipole Moment: [e a0]
     X:     0.0887      Y:     0.1428      Z:    -0.0352     Total:     0.1717

  Dipole Moment: [D]
     X:     0.2254      Y:     0.3629      Z:    -0.0896     Total:     0.4365


*** tstop() called on r282 at Fri Sep 10 21:35:07 2021
Module time:
	user time   =      59.84 seconds =       1.00 minutes
	system time =       0.87 seconds =       0.01 minutes
	total time  =         61 seconds =       1.02 minutes
Total time:
	user time   =     150.61 seconds =       2.51 minutes
	system time =       2.75 seconds =       0.05 minutes
	total time  =        154 seconds =       2.57 minutes

  //>>>>>>>>>>>>>>>>>>>>>>>>>>>>>>>>>>>//
  //            Monomer B HF           //
  //<<<<<<<<<<<<<<<<<<<<<<<<<<<<<<<<<<<//


*** tstart() called on r282
*** at Fri Sep 10 21:35:07 2021

   => Loading Basis Set <=

    Name: JUN-CC-PVTZ
    Role: ORBITAL
    Keyword: BASIS
    atoms 1-4, 13, 17, 20, 23              entry C          line   217 file /home/r08543048/miniconda3/share/psi4/basis/jun-cc-pvtz.gbs 
    atoms 5-12, 14-16, 18-19, 21-22, 24-26 entry H          line    36 file /home/r08543048/miniconda3/share/psi4/basis/jun-cc-pvtz.gbs 


         ---------------------------------------------------------
                                   SCF
               by Justin Turney, Rob Parrish, Andy Simmonett
                          and Daniel G. A. Smith
                              RHF Reference
                        1 Threads,  20980 MiB Core
         ---------------------------------------------------------

  ==> Geometry <==

    Molecular point group: c1
    Full point group: C1

    Geometry (in Angstrom), charge = 0, multiplicity = 1:

       Center              X                  Y                   Z               Mass       
    ------------   -----------------  -----------------  -----------------  -----------------
      Gh(C)           0.923546435529    -1.901136967444     0.205477286134    12.000000000000
      Gh(C)           1.426755435529    -0.698366967444     0.498813286134    12.000000000000
      Gh(C)           2.116291435529     0.197892032556    -0.479184713866    12.000000000000
      Gh(C)           3.566554435529     0.465408032556    -0.074517713866    12.000000000000
      Gh(H)           0.448212435529    -2.513834967444     0.959008286134     1.007825032230
      Gh(H)           0.978326435529    -2.296374967444    -0.801585713866     1.007825032230
      Gh(H)           1.358700435529    -0.336930967444     1.521835286134     1.007825032230
      Gh(H)           2.079499435529    -0.254122967444    -1.472602713866     1.007825032230
      Gh(H)           1.581274435529     1.149775032556    -0.538634713866     1.007825032230
      Gh(H)           3.613117435529     0.916236032556     0.917253286134     1.007825032230
      Gh(H)           4.134067435529    -0.464272967444    -0.046640713866     1.007825032230
      Gh(H)           4.051590435529     1.143853032556    -0.775641713866     1.007825032230
         C           -2.826762564471    -1.272623967444    -0.348939713866    12.000000000000
         H           -1.988876564471    -1.782493967444    -0.826794713866     1.007825032230
         H           -3.529849564471    -0.981175967444    -1.130635713866     1.007825032230
         H           -3.328164564471    -1.987753967444     0.303108286134     1.007825032230
         C           -2.336767564471    -0.053607967444     0.421157286134    12.000000000000
         H           -3.176028564471     0.429615032556     0.929374286134     1.007825032230
         H           -1.637079564471    -0.368536967444     1.199746286134     1.007825032230
         C           -1.644804564471     0.960899032556    -0.479782713866    12.000000000000
         H           -2.350010564471     1.306025032556    -1.241145713866     1.007825032230
         H           -0.830003564471     0.461567032556    -1.010807713866     1.007825032230
         C           -1.100411564471     2.151466032556     0.298831286134    12.000000000000
         H           -0.373188564471     1.822658032556     1.043368286134     1.007825032230
         H           -0.610303564471     2.873562032556    -0.354669713866     1.007825032230
         H           -1.902510564471     2.669073032556     0.827113286134     1.007825032230

  Running in c1 symmetry.

  Rotational constants: A =      0.07892  B =      0.02868  C =      0.02276 [cm^-1]
  Rotational constants: A =   2365.82000  B =    859.75735  C =    682.45477 [MHz]
  Nuclear repulsion =  131.154503665024748

  Charge       = 0
  Multiplicity = 1
  Electrons    = 34
  Nalpha       = 17
  Nbeta        = 17

  ==> Algorithm <==

  SCF Algorithm Type is DF.
  DIIS enabled.
  MOM disabled.
  Fractional occupation disabled.
  Guess Type is SAD.
  Energy threshold   = 1.00e-08
  Density threshold  = 1.00e-08
  Integral threshold = 0.00e+00

  ==> Primary Basis <==

  Basis Set: JUN-CC-PVTZ
    Blend: JUN-CC-PVTZ
    Number of shells: 212
    Number of basis function: 564
    Number of Cartesian functions: 630
    Spherical Harmonics?: true
    Max angular momentum: 3

   => Loading Basis Set <=

    Name: (JUN-CC-PVTZ AUX)
    Role: JKFIT
    Keyword: DF_BASIS_SCF
    atoms 1-4, 13, 17, 20, 23              entry C          line   152 file /home/r08543048/miniconda3/share/psi4/basis/jun-cc-pvtz-jkfit.gbs 
    atoms 5-12, 14-16, 18-19, 21-22, 24-26 entry H          line    70 file /home/r08543048/miniconda3/share/psi4/basis/jun-cc-pvtz-jkfit.gbs 

  ==> Pre-Iterations <==

   -------------------------------------------------------
    Irrep   Nso     Nmo     Nalpha   Nbeta   Ndocc  Nsocc
   -------------------------------------------------------
     A        564     564       0       0       0       0
   -------------------------------------------------------
    Total     564     564      17      17      17       0
   -------------------------------------------------------

  ==> Integral Setup <==

  ==> DiskDFJK: Density-Fitted J/K Matrices <==

    J tasked:                  Yes
    K tasked:                  Yes
    wK tasked:                  No
    OpenMP threads:              1
    Integrals threads:           1
    Memory [MiB]:            15735
    Algorithm:                Core
    Integral Cache:           LOAD
    Schwarz Cutoff:          1E-12
    Fitting Condition:       1E-10

   => Auxiliary Basis Set <=

  Basis Set: (JUN-CC-PVTZ AUX)
    Blend: JUN-CC-PVTZ-JKFIT
    Number of shells: 412
    Number of basis function: 1300
    Number of Cartesian functions: 1558
    Spherical Harmonics?: true
    Max angular momentum: 4

  Minimum eigenvalue in the overlap matrix is 2.6048692662E-05.
  Using Symmetric Orthogonalization.

  SCF Guess: Superposition of Atomic Densities via on-the-fly atomic UHF.

  ==> Iterations <==

                           Total Energy        Delta E     RMS |[F,P]|

   @DF-RHF iter SAD:  -156.79911752513163   -1.56799e+02   0.00000e+00 
   @DF-RHF iter   1:  -157.14942422070339   -3.50307e-01   1.02292e-03 DIIS
   @DF-RHF iter   2:  -157.31600940461121   -1.66585e-01   4.75732e-04 DIIS
   @DF-RHF iter   3:  -157.35335282505233   -3.73434e-02   8.37980e-05 DIIS
   @DF-RHF iter   4:  -157.35574794048654   -2.39512e-03   1.95487e-05 DIIS
   @DF-RHF iter   5:  -157.35583965321354   -9.17127e-05   5.05410e-06 DIIS
   @DF-RHF iter   6:  -157.35584731357133   -7.66036e-06   6.32805e-07 DIIS
   @DF-RHF iter   7:  -157.35584749347450   -1.79903e-07   1.11653e-07 DIIS
   @DF-RHF iter   8:  -157.35584749848161   -5.00711e-09   2.50389e-08 DIIS
   @DF-RHF iter   9:  -157.35584749875389   -2.72280e-10   5.77371e-09 DIIS
  Energy and wave function converged.


  ==> Post-Iterations <==

    Orbital Energies [Eh]
    ---------------------

    Doubly Occupied:                                                      

       1A    -11.213245     2A    -11.212613     3A    -11.207594  
       4A    -11.207474     5A     -1.071808     6A     -0.980261  
       7A     -0.859915     8A     -0.787276     9A     -0.639755  
      10A     -0.584053    11A     -0.575705    12A     -0.567065  
      13A     -0.513677    14A     -0.494190    15A     -0.469101  
      16A     -0.462123    17A     -0.455666  

    Virtual:                                                              

      18A      0.031131    19A      0.044505    20A      0.050853  
      21A      0.053447    22A      0.062267    23A      0.072045  
      24A      0.073081    25A      0.075459    26A      0.084427  
      27A      0.093610    28A      0.096170    29A      0.103143  
      30A      0.110404    31A      0.117654    32A      0.120386  
      33A      0.121721    34A      0.125372    35A      0.133548  
      36A      0.136511    37A      0.145632    38A      0.150262  
      39A      0.153222    40A      0.157848    41A      0.161444  
      42A      0.174806    43A      0.179307    44A      0.184687  
      45A      0.192038    46A      0.200339    47A      0.204621  
      48A      0.216354    49A      0.224577    50A      0.242445  
      51A      0.249696    52A      0.257383    53A      0.269483  
      54A      0.272110    55A      0.282178    56A      0.291810  
      57A      0.294950    58A      0.300824    59A      0.309550  
      60A      0.314806    61A      0.317077    62A      0.319595  
      63A      0.324519    64A      0.329901    65A      0.336697  
      66A      0.340925    67A      0.346426    68A      0.349234  
      69A      0.356301    70A      0.364350    71A      0.368158  
      72A      0.369684    73A      0.373293    74A      0.382611  
      75A      0.388243    76A      0.392632    77A      0.397362  
      78A      0.402333    79A      0.407247    80A      0.410083  
      81A      0.426468    82A      0.427479    83A      0.431971  
      84A      0.441547    85A      0.444702    86A      0.452200  
      87A      0.456453    88A      0.461200    89A      0.477391  
      90A      0.481039    91A      0.495395    92A      0.500156  
      93A      0.506476    94A      0.514640    95A      0.525873  
      96A      0.529887    97A      0.534247    98A      0.538846  
      99A      0.541423   100A      0.552415   101A      0.557156  
     102A      0.566962   103A      0.575544   104A      0.582252  
     105A      0.585712   106A      0.592874   107A      0.599713  
     108A      0.603241   109A      0.617120   110A      0.620963  
     111A      0.624163   112A      0.632679   113A      0.636348  
     114A      0.641675   115A      0.649577   116A      0.664338  
     117A      0.669019   118A      0.681441   119A      0.688445  
     120A      0.703803   121A      0.710628   122A      0.722666  
     123A      0.730224   124A      0.743140   125A      0.745809  
     126A      0.753990   127A      0.764301   128A      0.782366  
     129A      0.789764   130A      0.807247   131A      0.811329  
     132A      0.818756   133A      0.837225   134A      0.839937  
     135A      0.841801   136A      0.848294   137A      0.856051  
     138A      0.863287   139A      0.865799   140A      0.871761  
     141A      0.884609   142A      0.887596   143A      0.902585  
     144A      0.904058   145A      0.938668   146A      0.951801  
     147A      0.956152   148A      0.978109   149A      0.998247  
     150A      1.017867   151A      1.024781   152A      1.028026  
     153A      1.065464   154A      1.081383   155A      1.100551  
     156A      1.105965   157A      1.116414   158A      1.131397  
     159A      1.144128   160A      1.148583   161A      1.151372  
     162A      1.174928   163A      1.181357   164A      1.184487  
     165A      1.200200   166A      1.205673   167A      1.214743  
     168A      1.222739   169A      1.238976   170A      1.242503  
     171A      1.248307   172A      1.251503   173A      1.256100  
     174A      1.278060   175A      1.289820   176A      1.295657  
     177A      1.315473   178A      1.317721   179A      1.323940  
     180A      1.329450   181A      1.339275   182A      1.345202  
     183A      1.352271   184A      1.353044   185A      1.373343  
     186A      1.382519   187A      1.395623   188A      1.400275  
     189A      1.416958   190A      1.423826   191A      1.427281  
     192A      1.438561   193A      1.439545   194A      1.452611  
     195A      1.462996   196A      1.465806   197A      1.478531  
     198A      1.482479   199A      1.495711   200A      1.496555  
     201A      1.506899   202A      1.512071   203A      1.519897  
     204A      1.532094   205A      1.537304   206A      1.541464  
     207A      1.550890   208A      1.557892   209A      1.567539  
     210A      1.571865   211A      1.579287   212A      1.588629  
     213A      1.602807   214A      1.605267   215A      1.613016  
     216A      1.620443   217A      1.626053   218A      1.632603  
     219A      1.642045   220A      1.643862   221A      1.656344  
     222A      1.667142   223A      1.683678   224A      1.692863  
     225A      1.700019   226A      1.716440   227A      1.723269  
     228A      1.729884   229A      1.755895   230A      1.762767  
     231A      1.777514   232A      1.779976   233A      1.794518  
     234A      1.811191   235A      1.813341   236A      1.848968  
     237A      1.860832   238A      1.888940   239A      1.894791  
     240A      1.910456   241A      1.926460   242A      1.928160  
     243A      1.935508   244A      1.947337   245A      1.963033  
     246A      1.977146   247A      1.992661   248A      2.018499  
     249A      2.023683   250A      2.037804   251A      2.063008  
     252A      2.071128   253A      2.094467   254A      2.117931  
     255A      2.151350   256A      2.170007   257A      2.190409  
     258A      2.211166   259A      2.273912   260A      2.278865  
     261A      2.377870   262A      2.395462   263A      2.430875  
     264A      2.452627   265A      2.509881   266A      2.545535  
     267A      2.582708   268A      2.628642   269A      2.732114  
     270A      2.747795   271A      2.762901   272A      2.811851  
     273A      2.829066   274A      2.870548   275A      2.885053  
     276A      2.891032   277A      2.908965   278A      2.921878  
     279A      2.935397   280A      2.941902   281A      2.964479  
     282A      3.006787   283A      3.027409   284A      3.049957  
     285A      3.086338   286A      3.128958   287A      3.139190  
     288A      3.150402   289A      3.152185   290A      3.160367  
     291A      3.174064   292A      3.198442   293A      3.242726  
     294A      3.268889   295A      3.278586   296A      3.306235  
     297A      3.322837   298A      3.336177   299A      3.349977  
     300A      3.363641   301A      3.403981   302A      3.410567  
     303A      3.414800   304A      3.416544   305A      3.442196  
     306A      3.460220   307A      3.469866   308A      3.475560  
     309A      3.480609   310A      3.496210   311A      3.503622  
     312A      3.510675   313A      3.530394   314A      3.532166  
     315A      3.540818   316A      3.562809   317A      3.574057  
     318A      3.582941   319A      3.584304   320A      3.589620  
     321A      3.601177   322A      3.602585   323A      3.611622  
     324A      3.631240   325A      3.636961   326A      3.645229  
     327A      3.646946   328A      3.653605   329A      3.659644  
     330A      3.676289   331A      3.690768   332A      3.708356  
     333A      3.727638   334A      3.739339   335A      3.742565  
     336A      3.751873   337A      3.768237   338A      3.788759  
     339A      3.800150   340A      3.813178   341A      3.823757  
     342A      3.830001   343A      3.836483   344A      3.847478  
     345A      3.850316   346A      3.859406   347A      3.871722  
     348A      3.875490   349A      3.903766   350A      3.910012  
     351A      3.934073   352A      3.945949   353A      3.955452  
     354A      3.961865   355A      3.965028   356A      3.972141  
     357A      3.979037   358A      3.987269   359A      3.992592  
     360A      4.005382   361A      4.038180   362A      4.053129  
     363A      4.067951   364A      4.083737   365A      4.097045  
     366A      4.104437   367A      4.121930   368A      4.136756  
     369A      4.158645   370A      4.168684   371A      4.178756  
     372A      4.186909   373A      4.201149   374A      4.215882  
     375A      4.223904   376A      4.231937   377A      4.242774  
     378A      4.257989   379A      4.269409   380A      4.272745  
     381A      4.281463   382A      4.297307   383A      4.306714  
     384A      4.315799   385A      4.316304   386A      4.339440  
     387A      4.348347   388A      4.358256   389A      4.369860  
     390A      4.384186   391A      4.392531   392A      4.397887  
     393A      4.413598   394A      4.430988   395A      4.441652  
     396A      4.449895   397A      4.458769   398A      4.464272  
     399A      4.475435   400A      4.489100   401A      4.502767  
     402A      4.509519   403A      4.516613   404A      4.520685  
     405A      4.526548   406A      4.532378   407A      4.546754  
     408A      4.552093   409A      4.564942   410A      4.572155  
     411A      4.578989   412A      4.589894   413A      4.600397  
     414A      4.615991   415A      4.623045   416A      4.635055  
     417A      4.643391   418A      4.651753   419A      4.662165  
     420A      4.675634   421A      4.686433   422A      4.694495  
     423A      4.699943   424A      4.710763   425A      4.719064  
     426A      4.730434   427A      4.747320   428A      4.753620  
     429A      4.759220   430A      4.776398   431A      4.800988  
     432A      4.816688   433A      4.822848   434A      4.831964  
     435A      4.833476   436A      4.840174   437A      4.856056  
     438A      4.862934   439A      4.866156   440A      4.874103  
     441A      4.887730   442A      4.902156   443A      4.908250  
     444A      4.908808   445A      4.921513   446A      4.929523  
     447A      4.950759   448A      4.960545   449A      4.976652  
     450A      5.000199   451A      5.005186   452A      5.035126  
     453A      5.038347   454A      5.044942   455A      5.057561  
     456A      5.073647   457A      5.096058   458A      5.108046  
     459A      5.123953   460A      5.126348   461A      5.138035  
     462A      5.151256   463A      5.159081   464A      5.187549  
     465A      5.216627   466A      5.242732   467A      5.251405  
     468A      5.263305   469A      5.274349   470A      5.290333  
     471A      5.300549   472A      5.308766   473A      5.322847  
     474A      5.340428   475A      5.356929   476A      5.364071  
     477A      5.365760   478A      5.377558   479A      5.398461  
     480A      5.433074   481A      5.440929   482A      5.458145  
     483A      5.477789   484A      5.491505   485A      5.505390  
     486A      5.536940   487A      5.563700   488A      5.578292  
     489A      5.622176   490A      5.637374   491A      5.661814  
     492A      5.669061   493A      5.679201   494A      5.713117  
     495A      5.737221   496A      5.755638   497A      5.759835  
     498A      5.784725   499A      5.802088   500A      5.808603  
     501A      5.832286   502A      5.838177   503A      5.860187  
     504A      5.900788   505A      5.912129   506A      5.916086  
     507A      5.960997   508A      5.971394   509A      5.975630  
     510A      5.986516   511A      6.013681   512A      6.039907  
     513A      6.066390   514A      6.070303   515A      6.091768  
     516A      6.156515   517A      6.193603   518A      6.202006  
     519A      6.283425   520A      6.333104   521A      6.355389  
     522A      6.392351   523A      6.421471   524A      6.469471  
     525A      6.490281   526A      6.498041   527A      6.522579  
     528A      6.556663   529A      6.561490   530A      6.587117  
     531A      6.645262   532A      6.672567   533A      6.753731  
     534A      6.802092   535A      6.861513   536A      6.965326  
     537A      7.110125   538A      7.387246   539A      7.427795  
     540A      7.494665   541A      7.578875   542A      7.601113  
     543A      7.686686   544A      7.707408   545A      7.840635  
     546A      7.887832   547A      7.983821   548A      7.989021  
     549A      8.136307   550A      8.293347   551A      8.455186  
     552A      8.819282   553A      9.452512   554A      9.698764  
     555A      9.887302   556A     10.237697   557A     13.783535  
     558A     14.277450   559A     14.566999   560A     14.731607  
     561A     41.406582   562A     44.890037   563A     45.561254  
     564A     47.327399  

    Final Occupation by Irrep:
              A 
    DOCC [    17 ]

  @DF-RHF Final Energy:  -157.35584749875389

   => Energetics <=

    Nuclear Repulsion Energy =            131.1545036650247482
    One-Electron Energy =                -470.4176566520561664
    Two-Electron Energy =                 181.9073054882775011
    Total Energy =                       -157.3558474987538887

Computation Completed


Properties will be evaluated at   0.000000,   0.000000,   0.000000 [a0]

Properties computed using the SCF density matrix

  Nuclear Dipole Moment: [e a0]
     X:  -126.9490      Y:    28.6470      Z:    -1.7267

  Electronic Dipole Moment: [e a0]
     X:   126.9480      Y:   -28.6468      Z:     1.7270

  Dipole Moment: [e a0]
     X:    -0.0009      Y:     0.0002      Z:     0.0002     Total:     0.0010

  Dipole Moment: [D]
     X:    -0.0024      Y:     0.0005      Z:     0.0006     Total:     0.0025


*** tstop() called on r282 at Fri Sep 10 21:35:56 2021
Module time:
	user time   =      48.63 seconds =       0.81 minutes
	system time =       0.82 seconds =       0.01 minutes
	total time  =         49 seconds =       0.82 minutes
Total time:
	user time   =     199.24 seconds =       3.32 minutes
	system time =       3.57 seconds =       0.06 minutes
	total time  =        203 seconds =       3.38 minutes
  Constructing Basis Sets for SAPT...

   => Loading Basis Set <=

    Name: (JUN-CC-PVTZ AUX)
    Role: RIFIT
    Keyword: DF_BASIS_SAPT
    atoms 1-4, 13, 17, 20, 23              entry C          line   132 file /home/r08543048/miniconda3/share/psi4/basis/jun-cc-pvtz-ri.gbs 
    atoms 5-12, 14-16, 18-19, 21-22, 24-26 entry H          line    30 file /home/r08543048/miniconda3/share/psi4/basis/jun-cc-pvtz-ri.gbs 


  //>>>>>>>>>>>>>>>>>>>>>>>>>>>>>>>>>>>//
  //               SAPT0               //
  //<<<<<<<<<<<<<<<<<<<<<<<<<<<<<<<<<<<//


*** tstart() called on r282
*** at Fri Sep 10 21:35:56 2021

        SAPT0  
    Ed Hohenstein
     6 June 2009

      Orbital Information
  --------------------------
    NSO        =       564
    NMO        =       564
    NRI        =      1316
    NOCC A     =        16
    NOCC B     =        17
    FOCC A     =         0
    FOCC B     =         0
    NVIR A     =       548
    NVIR B     =       547

    Elst10,r            =    -0.002838067038 [Eh]
    Exch10              =     0.007383878324 [Eh]
    Exch10 (S^2)        =     0.007356027969 [Eh]

    Iter     Energy [mEh]          dE [mEh]         Residual      Time [s]
       1      -1.23102460       1.231024602       4.736822551             1
       2      -1.58033681       0.349312211       1.119547360             3
       3      -1.57959730      -0.000739517       0.430640173             4
       4      -1.57364245      -0.005954850       0.093927220             5
       5      -1.57415188       0.000509429       0.034861214             7
       6      -1.57445020       0.000298321       0.007438692             8
       7      -1.57443016      -0.000020032       0.002678499             9
       8      -1.57441451      -0.000015658       0.000809567            11
       9      -1.57441904       0.000004538       0.000254742            12
      10      -1.57441975       0.000000709       0.000081589            14
      11      -1.57441934      -0.000000416       0.000020669            15
      12      -1.57441934       0.000000003       0.000004952            16
      13      -1.57441936       0.000000022       0.000001225            18
      14      -1.57441936      -0.000000002       0.000000366            19

    CHF Iterations converged


    Iter     Energy [mEh]          dE [mEh]         Residual      Time [s]
       1      -0.49907600       0.499075999       3.495099873             1
       2      -0.55324073       0.054164736       1.207863306             3
       3      -0.57647820       0.023237462       0.220000750             4
       4      -0.57623139      -0.000246806       0.070012822             6
       5      -0.57550845      -0.000722938       0.013371291             7
       6      -0.57559482       0.000086367       0.003301121             8
       7      -0.57560493       0.000010107       0.000825054            10
       8      -0.57560209      -0.000002831       0.000228071            11
       9      -0.57560144      -0.000000654       0.000047122            16
      10      -0.57560166       0.000000222       0.000010890            17
      11      -0.57560167       0.000000008       0.000003246            19
      12      -0.57560166      -0.000000009       0.000000764            20

    CHF Iterations converged

    Ind20,r (A<-B)      =    -0.001574419360 [Eh]
    Ind20,r (B<-A)      =    -0.000575601661 [Eh]
    Ind20,r             =    -0.002150021021 [Eh]
    Exch-Ind20,r (A<-B) =     0.001561968380 [Eh]
    Exch-Ind20,r (B<-A) =     0.000439738927 [Eh]
    Exch-Ind20,r        =     0.002001707308 [Eh]
    Disp20              =    -0.009215273956 [Eh]
    Disp20 (SS)         =    -0.004607636978 [Eh]
    Disp20 (OS)         =    -0.004607636978 [Eh]
    Exch-Disp20         =     0.000993751453 [Eh]
    Exch-Disp20 (SS)    =     0.000640787182 [Eh]
    Exch-Disp20 (OS)    =     0.000352964271 [Eh]

    SAPT Results 
  --------------------------------------------------------------------------------------------------------
    Electrostatics                 -2.83806704 [mEh]      -1.78091395 [kcal/mol]      -7.45134398 [kJ/mol]
      Elst10,r                     -2.83806704 [mEh]      -1.78091395 [kcal/mol]      -7.45134398 [kJ/mol]

    Exchange                        7.38387832 [mEh]       4.63345360 [kcal/mol]      19.38636987 [kJ/mol]
      Exch10                        7.38387832 [mEh]       4.63345360 [kcal/mol]      19.38636987 [kJ/mol]
      Exch10(S^2)                   7.35602797 [mEh]       4.61597724 [kcal/mol]      19.31324877 [kJ/mol]

    Induction                      -0.73402953 [mEh]      -0.46061048 [kcal/mol]      -1.92719426 [kJ/mol]
      Ind20,r                      -2.15002102 [mEh]      -1.34915856 [kcal/mol]      -5.64487941 [kJ/mol]
      Exch-Ind20,r                  2.00170731 [mEh]       1.25609030 [kcal/mol]       5.25548181 [kJ/mol]
      delta HF,r (2)               -0.58571581 [mEh]      -0.36754222 [kcal/mol]      -1.53779666 [kJ/mol]

    Dispersion                     -8.22152250 [mEh]      -5.15908326 [kcal/mol]     -21.58560436 [kJ/mol]
      Disp20                       -9.21527396 [mEh]      -5.78267171 [kcal/mol]     -24.19469844 [kJ/mol]
      Exch-Disp20                   0.99375145 [mEh]       0.62358845 [kcal/mol]       2.60909408 [kJ/mol]
      Disp20 (SS)                  -4.60763698 [mEh]      -2.89133586 [kcal/mol]     -12.09734922 [kJ/mol]
      Disp20 (OS)                  -4.60763698 [mEh]      -2.89133586 [kcal/mol]     -12.09734922 [kJ/mol]
      Exch-Disp20 (SS)              0.64078718 [mEh]       0.40210003 [kcal/mol]       1.68238651 [kJ/mol]
      Exch-Disp20 (OS)              0.35296427 [mEh]       0.22148842 [kcal/mol]       0.92670757 [kJ/mol]

  Total HF                          3.81178176 [mEh]       2.39192917 [kcal/mol]      10.00783163 [kJ/mol]
  Total SAPT0                      -4.40974074 [mEh]      -2.76715409 [kcal/mol]     -11.57777273 [kJ/mol]

  Special recipe for scaled SAPT0 (see Manual):
    Electrostatics sSAPT0          -2.83806704 [mEh]      -1.78091395 [kcal/mol]      -7.45134398 [kJ/mol]
    Exchange sSAPT0                 7.38387832 [mEh]       4.63345360 [kcal/mol]      19.38636987 [kJ/mol]
    Induction sSAPT0               -0.71120759 [mEh]      -0.44628950 [kcal/mol]      -1.86727528 [kJ/mol]
    Dispersion sSAPT0              -8.21019251 [mEh]      -5.15197358 [kcal/mol]     -21.55585747 [kJ/mol]
  Total sSAPT0                     -4.37558882 [mEh]      -2.74572344 [kcal/mol]     -11.48810686 [kJ/mol]
  --------------------------------------------------------------------------------------------------------

*** tstop() called on r282 at Fri Sep 10 21:38:51 2021
Module time:
	user time   =     148.28 seconds =       2.47 minutes
	system time =      23.16 seconds =       0.39 minutes
	total time  =        175 seconds =       2.92 minutes
Total time:
	user time   =     347.70 seconds =       5.79 minutes
	system time =      26.73 seconds =       0.45 minutes
	total time  =        378 seconds =       6.30 minutes

    Psi4 stopped on: Friday, 10 September 2021 09:38PM
    Psi4 wall time for execution: 0:06:17.69

*** Psi4 exiting successfully. Buy a developer a beer!
