
    -----------------------------------------------------------------------
          Psi4: An Open-Source Ab Initio Electronic Structure Package
                               Psi4 1.3.2 release

                         Git: Rev {HEAD} ecbda83 


    R. M. Parrish, L. A. Burns, D. G. A. Smith, A. C. Simmonett,
    A. E. DePrince III, E. G. Hohenstein, U. Bozkaya, A. Yu. Sokolov,
    R. Di Remigio, R. M. Richard, J. F. Gonthier, A. M. James,
    H. R. McAlexander, A. Kumar, M. Saitow, X. Wang, B. P. Pritchard,
    P. Verma, H. F. Schaefer III, K. Patkowski, R. A. King, E. F. Valeev,
    F. A. Evangelista, J. M. Turney, T. D. Crawford, and C. D. Sherrill,
    J. Chem. Theory Comput. 13(7) pp 3185--3197 (2017).
    (doi: 10.1021/acs.jctc.7b00174)


                         Additional Contributions by
    P. Kraus, H. Kruse, M. H. Lechner, M. C. Schieber, R. A. Shaw,
    A. Alenaizan, R. Galvelis, Z. L. Glick, S. Lehtola, and J. P. Misiewicz

    -----------------------------------------------------------------------


    Psi4 started on: Friday, 10 September 2021 09:48PM

    Process ID: 57222
    Host:       r282
    PSIDATADIR: /home/r08543048/miniconda3/share/psi4
    Memory:     500.0 MiB
    Threads:    1
    
  ==> Input File <==

--------------------------------------------------------------------------
# Any line starting with the # character is a comment line
#! Sample  computation

memory 22 gb

molecule Dimer {
0 1
 C -2.029343   -2.146292   -0.557307
 C -2.440594   -0.876745   -0.626431
 C -2.059959    0.194461    0.343981
 C -1.326055    1.354014   -0.331628
 C -0.955273    2.450620    0.658355
 H -1.388474   -2.480805    0.249285
 H -2.325681   -2.876148   -1.297830
 H -3.082023   -0.577944   -1.451202
 H -2.958975    0.588766    0.829092

 H -1.432000   -0.231187    1.131296

 H -0.427570    0.970008   -0.819900

 H -1.958445    1.765711   -1.122492

 H -1.847803    2.865519    1.128723

 H -0.315824    2.057375    1.450064
 
H -0.421624    3.266505    0.171250






 --
0 1
 C 2.598686    0.406179   -1.626780
 H 1.646499    0.357370   -2.157416
 H 3.215011   -0.421997   -1.979135
 H 3.092925    1.335751   -1.908280
 C 2.383022    0.315222   -0.121369
 H 3.343953    0.384602    0.396062
 H 1.787652    1.167106    0.219600
 C 1.685760   -0.976146    0.287774
 H 2.287609   -1.827340   -0.043032
 H 0.731362   -1.051729   -0.240818
 C 1.454171   -1.063107    1.790965
 H 0.851278   -0.222841    2.139466
 H 0.938335   -1.982814    2.068219
 H 2.401299   -1.035142    2.331689







units angstrom

no_reorient
symmetry c1
}

set globals{
  basis jun-cc-pvtz
}

energy('sapt0')


--------------------------------------------------------------------------

  Memory set to  20.489 GiB by Python driver.

  //>>>>>>>>>>>>>>>>>>>>>>>>>>>>>>>>>>>//
  //              Dimer HF             //
  //<<<<<<<<<<<<<<<<<<<<<<<<<<<<<<<<<<<//


*** tstart() called on r282
*** at Fri Sep 10 21:48:47 2021

   => Loading Basis Set <=

    Name: JUN-CC-PVTZ
    Role: ORBITAL
    Keyword: BASIS
    atoms 1-5, 16, 20, 23, 26              entry C          line   217 file /home/r08543048/miniconda3/share/psi4/basis/jun-cc-pvtz.gbs 
    atoms 6-15, 17-19, 21-22, 24-25, 27-29 entry H          line    36 file /home/r08543048/miniconda3/share/psi4/basis/jun-cc-pvtz.gbs 


         ---------------------------------------------------------
                                   SCF
               by Justin Turney, Rob Parrish, Andy Simmonett
                          and Daniel G. A. Smith
                              RHF Reference
                        1 Threads,  20980 MiB Core
         ---------------------------------------------------------

  ==> Geometry <==

    Molecular point group: c1
    Full point group: C1

    Geometry (in Angstrom), charge = 0, multiplicity = 1:

       Center              X                  Y                   Z               Mass       
    ------------   -----------------  -----------------  -----------------  -----------------
         C           -1.997310759129    -2.130415203429    -0.548832413120    12.000000000000
         C           -2.408561759129    -0.860868203429    -0.617956413120    12.000000000000
         C           -2.027926759129     0.210337796571     0.352455586880    12.000000000000
         C           -1.294022759129     1.369890796571    -0.323153413120    12.000000000000
         C           -0.923240759129     2.466496796571     0.666829586880    12.000000000000
         H           -1.356441759129    -2.464928203429     0.257759586880     1.007825032230
         H           -2.293648759129    -2.860271203429    -1.289355413120     1.007825032230
         H           -3.049990759129    -0.562067203429    -1.442727413120     1.007825032230
         H           -2.926942759129     0.604642796571     0.837566586880     1.007825032230
         H           -1.399967759129    -0.215310203429     1.139770586880     1.007825032230
         H           -0.395537759129     0.985884796571    -0.811425413120     1.007825032230
         H           -1.926412759129     1.781587796571    -1.114017413120     1.007825032230
         H           -1.815770759129     2.881395796571     1.137197586880     1.007825032230
         H           -0.283791759129     2.073251796571     1.458538586880     1.007825032230
         H           -0.389591759129     3.282381796571     0.179724586880     1.007825032230
         C            2.630718240871     0.422055796571    -1.618305413120    12.000000000000
         H            1.678531240871     0.373246796571    -2.148941413120     1.007825032230
         H            3.247043240871    -0.406120203429    -1.970660413120     1.007825032230
         H            3.124957240871     1.351627796571    -1.899805413120     1.007825032230
         C            2.415054240871     0.331098796571    -0.112894413120    12.000000000000
         H            3.375985240871     0.400478796571     0.404536586880     1.007825032230
         H            1.819684240871     1.182982796571     0.228074586880     1.007825032230
         C            1.717792240871    -0.960269203429     0.296248586880    12.000000000000
         H            2.319641240871    -1.811463203429    -0.034557413120     1.007825032230
         H            0.763394240871    -1.035852203429    -0.232343413120     1.007825032230
         C            1.486203240871    -1.047230203429     1.799439586880    12.000000000000
         H            0.883310240871    -0.206964203429     2.147940586880     1.007825032230
         H            0.970367240871    -1.966937203429     2.076693586880     1.007825032230
         H            2.433331240871    -1.019265203429     2.340163586880     1.007825032230

  Running in c1 symmetry.

  Rotational constants: A =      0.04569  B =      0.02699  C =      0.02273 [cm^-1]
  Rotational constants: A =   1369.66073  B =    809.12224  C =    681.48242 [MHz]
  Nuclear repulsion =  463.785968828164016

  Charge       = 0
  Multiplicity = 1
  Electrons    = 74
  Nalpha       = 37
  Nbeta        = 37

  ==> Algorithm <==

  SCF Algorithm Type is DF.
  DIIS enabled.
  MOM disabled.
  Fractional occupation disabled.
  Guess Type is SAD.
  Energy threshold   = 1.00e-08
  Density threshold  = 1.00e-08
  Integral threshold = 0.00e+00

  ==> Primary Basis <==

  Basis Set: JUN-CC-PVTZ
    Blend: JUN-CC-PVTZ
    Number of shells: 237
    Number of basis function: 631
    Number of Cartesian functions: 705
    Spherical Harmonics?: true
    Max angular momentum: 3

   => Loading Basis Set <=

    Name: (JUN-CC-PVTZ AUX)
    Role: JKFIT
    Keyword: DF_BASIS_SCF
    atoms 1-5, 16, 20, 23, 26              entry C          line   152 file /home/r08543048/miniconda3/share/psi4/basis/jun-cc-pvtz-jkfit.gbs 
    atoms 6-15, 17-19, 21-22, 24-25, 27-29 entry H          line    70 file /home/r08543048/miniconda3/share/psi4/basis/jun-cc-pvtz-jkfit.gbs 

  ==> Pre-Iterations <==

   -------------------------------------------------------
    Irrep   Nso     Nmo     Nalpha   Nbeta   Ndocc  Nsocc
   -------------------------------------------------------
     A        631     631       0       0       0       0
   -------------------------------------------------------
    Total     631     631      37      37      37       0
   -------------------------------------------------------

  ==> Integral Setup <==

  ==> DiskDFJK: Density-Fitted J/K Matrices <==

    J tasked:                  Yes
    K tasked:                  Yes
    wK tasked:                  No
    OpenMP threads:              1
    Integrals threads:           1
    Memory [MiB]:            15735
    Algorithm:                Core
    Integral Cache:           SAVE
    Schwarz Cutoff:          1E-12
    Fitting Condition:       1E-10

   => Auxiliary Basis Set <=

  Basis Set: (JUN-CC-PVTZ AUX)
    Blend: JUN-CC-PVTZ-JKFIT
    Number of shells: 461
    Number of basis function: 1455
    Number of Cartesian functions: 1744
    Spherical Harmonics?: true
    Max angular momentum: 4

  Minimum eigenvalue in the overlap matrix is 2.8459114764E-05.
  Using Symmetric Orthogonalization.

  SCF Guess: Superposition of Atomic Densities via on-the-fly atomic UHF.

  ==> Iterations <==

                           Total Energy        Delta E     RMS |[F,P]|

   @DF-RHF iter SAD:  -351.44908465587002   -3.51449e+02   0.00000e+00 
   @DF-RHF iter   1:  -352.14779060038046   -6.98706e-01   1.29002e-03 DIIS
   @DF-RHF iter   2:  -352.48824996919160   -3.40459e-01   5.82575e-04 DIIS
   @DF-RHF iter   3:  -352.55900244395883   -7.07525e-02   1.11024e-04 DIIS
   @DF-RHF iter   4:  -352.56382581644914   -4.82337e-03   3.23651e-05 DIIS
   @DF-RHF iter   5:  -352.56410211543090   -2.76299e-04   7.64310e-06 DIIS
   @DF-RHF iter   6:  -352.56412184373056   -1.97283e-05   1.99584e-06 DIIS
   @DF-RHF iter   7:  -352.56412302599352   -1.18226e-06   4.99932e-07 DIIS
   @DF-RHF iter   8:  -352.56412311411981   -8.81263e-08   1.03361e-07 DIIS
   @DF-RHF iter   9:  -352.56412311923185   -5.11204e-09   3.86441e-08 DIIS
   @DF-RHF iter  10:  -352.56412312000225   -7.70399e-10   1.35184e-08 DIIS
   @DF-RHF iter  11:  -352.56412312010065   -9.83960e-11   4.41721e-09 DIIS
  Energy and wave function converged.


  ==> Post-Iterations <==

    Orbital Energies [Eh]
    ---------------------

    Doubly Occupied:                                                      

       1A    -11.231060     2A    -11.221911     3A    -11.219548  
       4A    -11.217485     5A    -11.212313     6A    -11.212297  
       7A    -11.210917     8A    -11.208669     9A    -11.206884  
      10A     -1.090434    11A     -1.070942    12A     -1.022876  
      13A     -0.980485    14A     -0.923291    15A     -0.860254  
      16A     -0.812601    17A     -0.787172    18A     -0.757598  
      19A     -0.657748    20A     -0.635112    21A     -0.616376  
      22A     -0.590399    23A     -0.584226    24A     -0.575796  
      25A     -0.569898    26A     -0.565711    27A     -0.538849  
      28A     -0.514242    29A     -0.511494    30A     -0.495081  
      31A     -0.483879    32A     -0.473623    33A     -0.472068  
      34A     -0.467359    35A     -0.459041    36A     -0.455525  
      37A     -0.356382  

    Virtual:                                                              

      38A      0.047162    39A      0.050419    40A      0.052153  
      41A      0.057526    42A      0.067707    43A      0.070906  
      44A      0.072959    45A      0.075714    46A      0.082120  
      47A      0.098165    48A      0.101078    49A      0.106047  
      50A      0.110485    51A      0.113025    52A      0.116809  
      53A      0.118383    54A      0.132917    55A      0.138208  
      56A      0.141474    57A      0.144124    58A      0.147795  
      59A      0.150875    60A      0.153898    61A      0.164551  
      62A      0.169750    63A      0.177523    64A      0.181511  
      65A      0.186355    66A      0.192382    67A      0.194744  
      68A      0.199670    69A      0.207638    70A      0.208888  
      71A      0.216616    72A      0.222472    73A      0.225819  
      74A      0.235834    75A      0.245030    76A      0.262541  
      77A      0.269535    78A      0.273214    79A      0.278551  
      80A      0.289862    81A      0.295631    82A      0.302346  
      83A      0.309021    84A      0.313744    85A      0.315910  
      86A      0.320031    87A      0.324260    88A      0.327231  
      89A      0.332690    90A      0.334331    91A      0.342807  
      92A      0.344083    93A      0.348534    94A      0.349045  
      95A      0.354052    96A      0.360125    97A      0.366550  
      98A      0.368121    99A      0.374340   100A      0.378819  
     101A      0.390596   102A      0.396882   103A      0.399691  
     104A      0.406992   105A      0.408815   106A      0.409373  
     107A      0.413609   108A      0.424933   109A      0.427382  
     110A      0.432619   111A      0.439577   112A      0.448923  
     113A      0.450700   114A      0.454845   115A      0.459212  
     116A      0.465340   117A      0.473086   118A      0.484026  
     119A      0.490246   120A      0.496616   121A      0.501147  
     122A      0.511238   123A      0.517753   124A      0.524189  
     125A      0.530035   126A      0.531698   127A      0.544324  
     128A      0.547626   129A      0.551235   130A      0.560048  
     131A      0.562663   132A      0.566607   133A      0.572347  
     134A      0.578582   135A      0.583129   136A      0.588065  
     137A      0.595557   138A      0.597137   139A      0.604258  
     140A      0.611588   141A      0.618999   142A      0.630367  
     143A      0.634644   144A      0.640824   145A      0.646767  
     146A      0.667315   147A      0.673422   148A      0.686898  
     149A      0.702382   150A      0.707242   151A      0.722638  
     152A      0.724720   153A      0.735492   154A      0.740131  
     155A      0.743157   156A      0.752614   157A      0.769937  
     158A      0.782951   159A      0.787768   160A      0.793959  
     161A      0.796995   162A      0.802161   163A      0.808819  
     164A      0.820095   165A      0.823757   166A      0.828023  
     167A      0.835828   168A      0.840100   169A      0.843708  
     170A      0.851357   171A      0.852206   172A      0.861854  
     173A      0.870152   174A      0.872479   175A      0.875684  
     176A      0.883314   177A      0.891511   178A      0.894420  
     179A      0.902262   180A      0.908341   181A      0.911015  
     182A      0.924603   183A      0.928596   184A      0.939614  
     185A      0.945027   186A      0.950205   187A      0.959386  
     188A      0.972023   189A      0.980824   190A      0.983069  
     191A      0.998251   192A      1.004126   193A      1.011522  
     194A      1.023796   195A      1.037185   196A      1.046654  
     197A      1.063089   198A      1.066290   199A      1.073210  
     200A      1.089249   201A      1.102127   202A      1.121936  
     203A      1.127231   204A      1.139188   205A      1.141320  
     206A      1.151565   207A      1.155121   208A      1.172202  
     209A      1.178098   210A      1.192379   211A      1.199653  
     212A      1.212671   213A      1.224178   214A      1.243581  
     215A      1.245863   216A      1.257669   217A      1.265624  
     218A      1.268983   219A      1.283074   220A      1.301531  
     221A      1.308555   222A      1.320674   223A      1.329798  
     224A      1.339865   225A      1.345702   226A      1.349227  
     227A      1.354463   228A      1.363207   229A      1.379139  
     230A      1.383255   231A      1.385212   232A      1.398086  
     233A      1.400955   234A      1.405349   235A      1.423472  
     236A      1.430281   237A      1.446782   238A      1.455267  
     239A      1.460491   240A      1.463063   241A      1.465699  
     242A      1.482544   243A      1.490426   244A      1.500779  
     245A      1.503851   246A      1.516777   247A      1.522375  
     248A      1.531107   249A      1.544346   250A      1.551272  
     251A      1.557815   252A      1.568461   253A      1.575221  
     254A      1.581365   255A      1.586517   256A      1.598409  
     257A      1.604080   258A      1.608937   259A      1.613085  
     260A      1.615805   261A      1.625542   262A      1.635863  
     263A      1.645863   264A      1.647779   265A      1.657247  
     266A      1.667128   267A      1.680073   268A      1.687084  
     269A      1.694188   270A      1.700773   271A      1.714693  
     272A      1.718640   273A      1.738745   274A      1.740488  
     275A      1.758406   276A      1.771187   277A      1.778141  
     278A      1.786731   279A      1.801195   280A      1.804479  
     281A      1.815189   282A      1.823991   283A      1.843153  
     284A      1.858879   285A      1.878965   286A      1.888479  
     287A      1.898786   288A      1.917144   289A      1.926175  
     290A      1.932207   291A      1.936162   292A      1.946970  
     293A      1.970888   294A      1.978615   295A      1.991570  
     296A      2.000034   297A      2.004766   298A      2.013671  
     299A      2.043934   300A      2.048100   301A      2.067094  
     302A      2.105589   303A      2.136240   304A      2.166453  
     305A      2.172326   306A      2.216952   307A      2.283113  
     308A      2.686216   309A      2.741552   310A      2.746281  
     311A      2.767214   312A      2.779390   313A      2.787340  
     314A      2.802971   315A      2.819391   316A      2.825822  
     317A      2.842814   318A      2.849759   319A      2.858422  
     320A      2.865726   321A      2.874632   322A      2.888353  
     323A      2.893930   324A      2.896981   325A      2.914431  
     326A      2.931295   327A      2.932813   328A      2.938095  
     329A      2.945353   330A      2.967022   331A      2.972646  
     332A      2.989730   333A      2.997406   334A      3.006035  
     335A      3.014300   336A      3.041086   337A      3.041703  
     338A      3.048422   339A      3.067634   340A      3.079607  
     341A      3.096275   342A      3.104232   343A      3.127272  
     344A      3.137921   345A      3.140045   346A      3.142906  
     347A      3.149312   348A      3.153799   349A      3.159866  
     350A      3.165298   351A      3.173536   352A      3.181900  
     353A      3.192970   354A      3.208338   355A      3.214046  
     356A      3.224404   357A      3.240280   358A      3.254429  
     359A      3.264425   360A      3.273913   361A      3.277908  
     362A      3.289998   363A      3.293386   364A      3.303507  
     365A      3.307156   366A      3.317542   367A      3.335050  
     368A      3.336555   369A      3.349576   370A      3.359694  
     371A      3.367279   372A      3.370178   373A      3.376733  
     374A      3.384802   375A      3.397070   376A      3.402433  
     377A      3.409801   378A      3.415784   379A      3.423323  
     380A      3.424164   381A      3.435706   382A      3.440137  
     383A      3.449556   384A      3.464071   385A      3.468362  
     386A      3.477531   387A      3.486637   388A      3.495529  
     389A      3.498881   390A      3.503889   391A      3.506123  
     392A      3.514403   393A      3.517602   394A      3.521391  
     395A      3.533962   396A      3.543963   397A      3.553545  
     398A      3.561949   399A      3.566640   400A      3.579244  
     401A      3.582618   402A      3.586541   403A      3.597474  
     404A      3.599313   405A      3.611424   406A      3.621190  
     407A      3.625130   408A      3.631635   409A      3.643640  
     410A      3.653568   411A      3.662964   412A      3.674013  
     413A      3.679267   414A      3.683967   415A      3.696257  
     416A      3.707177   417A      3.735731   418A      3.750765  
     419A      3.757377   420A      3.769060   421A      3.774630  
     422A      3.782443   423A      3.792481   424A      3.800555  
     425A      3.817890   426A      3.831591   427A      3.838872  
     428A      3.845235   429A      3.846244   430A      3.854397  
     431A      3.864682   432A      3.876003   433A      3.888994  
     434A      3.894037   435A      3.914400   436A      3.942282  
     437A      3.945774   438A      3.952300   439A      3.958885  
     440A      3.963939   441A      3.975563   442A      3.985260  
     443A      3.991409   444A      4.001316   445A      4.003064  
     446A      4.014745   447A      4.026205   448A      4.046673  
     449A      4.052612   450A      4.061905   451A      4.074090  
     452A      4.091895   453A      4.123395   454A      4.139491  
     455A      4.162568   456A      4.167425   457A      4.181843  
     458A      4.193244   459A      4.206667   460A      4.209738  
     461A      4.228984   462A      4.239547   463A      4.241720  
     464A      4.247493   465A      4.256774   466A      4.261434  
     467A      4.270446   468A      4.276770   469A      4.284475  
     470A      4.293210   471A      4.306466   472A      4.315625  
     473A      4.324412   474A      4.334915   475A      4.338905  
     476A      4.355975   477A      4.365327   478A      4.367670  
     479A      4.378936   480A      4.391008   481A      4.392895  
     482A      4.395647   483A      4.400775   484A      4.408054  
     485A      4.412956   486A      4.434231   487A      4.443829  
     488A      4.449928   489A      4.458352   490A      4.463480  
     491A      4.472652   492A      4.482182   493A      4.492308  
     494A      4.497179   495A      4.500775   496A      4.515263  
     497A      4.527072   498A      4.529408   499A      4.538887  
     500A      4.546620   501A      4.553469   502A      4.561725  
     503A      4.574520   504A      4.580103   505A      4.587654  
     506A      4.601772   507A      4.615526   508A      4.633682  
     509A      4.645310   510A      4.653394   511A      4.659857  
     512A      4.667759   513A      4.676639   514A      4.691270  
     515A      4.692424   516A      4.715862   517A      4.731732  
     518A      4.740217   519A      4.746433   520A      4.762167  
     521A      4.781715   522A      4.793404   523A      4.813124  
     524A      4.821158   525A      4.835051   526A      4.844995  
     527A      4.855338   528A      4.875945   529A      4.902127  
     530A      4.908333   531A      4.923419   532A      4.929520  
     533A      4.949636   534A      4.982125   535A      5.006347  
     536A      5.029089   537A      5.036960   538A      5.040103  
     539A      5.069631   540A      5.076289   541A      5.120469  
     542A      5.130171   543A      5.137772   544A      5.141988  
     545A      5.162920   546A      5.165087   547A      5.187099  
     548A      5.211773   549A      5.232896   550A      5.257968  
     551A      5.261783   552A      5.267045   553A      5.273871  
     554A      5.293507   555A      5.301004   556A      5.302485  
     557A      5.311175   558A      5.316962   559A      5.329917  
     560A      5.344539   561A      5.367540   562A      5.370953  
     563A      5.374648   564A      5.386893   565A      5.396127  
     566A      5.438810   567A      5.440222   568A      5.444635  
     569A      5.464086   570A      5.471597   571A      5.484478  
     572A      5.506699   573A      5.520395   574A      5.546747  
     575A      5.565870   576A      5.573899   577A      5.613308  
     578A      5.627675   579A      5.640601   580A      5.652074  
     581A      5.658389   582A      5.676849   583A      5.717908  
     584A      5.746849   585A      5.757857   586A      5.768362  
     587A      5.774721   588A      5.792703   589A      5.800715  
     590A      5.813808   591A      5.819798   592A      5.842129  
     593A      5.865943   594A      5.883062   595A      5.909994  
     596A      5.914375   597A      5.937681   598A      5.939866  
     599A      5.955006   600A      5.967889   601A      5.969660  
     602A      5.995548   603A      6.014090   604A      6.025554  
     605A      6.039809   606A      6.098551   607A      6.150223  
     608A      6.201235   609A      6.233661   610A      6.409436  
     611A      6.490270   612A      6.503311   613A      6.518019  
     614A      6.535129   615A      6.550337   616A      6.564360  
     617A      6.571082   618A      6.591017   619A      6.638326  
     620A      6.655764   621A      6.688832   622A      6.720775  
     623A     12.334926   624A     13.717939   625A     14.056947  
     626A     14.294841   627A     14.509199   628A     14.561354  
     629A     14.707049   630A     14.737121   631A     15.383422  

    Final Occupation by Irrep:
              A 
    DOCC [    37 ]

  @DF-RHF Final Energy:  -352.56412312010065

   => Energetics <=

    Nuclear Repulsion Energy =            463.7859688281640160
    One-Electron Energy =               -1394.1610911033253615
    Two-Electron Energy =                 577.8109991550606992
    Total Energy =                       -352.5641231201007031

Computation Completed


Properties will be evaluated at   0.000000,   0.000000,   0.000000 [a0]

Properties computed using the SCF density matrix

  Nuclear Dipole Moment: [e a0]
     X:     4.4794      Y:     2.2202      Z:     1.1851

  Electronic Dipole Moment: [e a0]
     X:    -4.4745      Y:    -2.0595      Z:    -1.1824

  Dipole Moment: [e a0]
     X:     0.0049      Y:     0.1607      Z:     0.0027     Total:     0.1608

  Dipole Moment: [D]
     X:     0.0125      Y:     0.4085      Z:     0.0068     Total:     0.4088


*** tstop() called on r282 at Fri Sep 10 21:51:23 2021
Module time:
	user time   =     152.68 seconds =       2.54 minutes
	system time =       2.65 seconds =       0.04 minutes
	total time  =        156 seconds =       2.60 minutes
Total time:
	user time   =     152.68 seconds =       2.54 minutes
	system time =       2.65 seconds =       0.04 minutes
	total time  =        156 seconds =       2.60 minutes

  //>>>>>>>>>>>>>>>>>>>>>>>>>>>>>>>>>>>//
  //            Monomer A HF           //
  //<<<<<<<<<<<<<<<<<<<<<<<<<<<<<<<<<<<//


*** tstart() called on r282
*** at Fri Sep 10 21:51:23 2021

   => Loading Basis Set <=

    Name: JUN-CC-PVTZ
    Role: ORBITAL
    Keyword: BASIS
    atoms 1-5, 16, 20, 23, 26              entry C          line   217 file /home/r08543048/miniconda3/share/psi4/basis/jun-cc-pvtz.gbs 
    atoms 6-15, 17-19, 21-22, 24-25, 27-29 entry H          line    36 file /home/r08543048/miniconda3/share/psi4/basis/jun-cc-pvtz.gbs 


         ---------------------------------------------------------
                                   SCF
               by Justin Turney, Rob Parrish, Andy Simmonett
                          and Daniel G. A. Smith
                              RHF Reference
                        1 Threads,  20980 MiB Core
         ---------------------------------------------------------

  ==> Geometry <==

    Molecular point group: c1
    Full point group: C1

    Geometry (in Angstrom), charge = 0, multiplicity = 1:

       Center              X                  Y                   Z               Mass       
    ------------   -----------------  -----------------  -----------------  -----------------
         C           -1.997310759129    -2.130415203429    -0.548832413120    12.000000000000
         C           -2.408561759129    -0.860868203429    -0.617956413120    12.000000000000
         C           -2.027926759129     0.210337796571     0.352455586880    12.000000000000
         C           -1.294022759129     1.369890796571    -0.323153413120    12.000000000000
         C           -0.923240759129     2.466496796571     0.666829586880    12.000000000000
         H           -1.356441759129    -2.464928203429     0.257759586880     1.007825032230
         H           -2.293648759129    -2.860271203429    -1.289355413120     1.007825032230
         H           -3.049990759129    -0.562067203429    -1.442727413120     1.007825032230
         H           -2.926942759129     0.604642796571     0.837566586880     1.007825032230
         H           -1.399967759129    -0.215310203429     1.139770586880     1.007825032230
         H           -0.395537759129     0.985884796571    -0.811425413120     1.007825032230
         H           -1.926412759129     1.781587796571    -1.114017413120     1.007825032230
         H           -1.815770759129     2.881395796571     1.137197586880     1.007825032230
         H           -0.283791759129     2.073251796571     1.458538586880     1.007825032230
         H           -0.389591759129     3.282381796571     0.179724586880     1.007825032230
      Gh(C)           2.630718240871     0.422055796571    -1.618305413120    12.000000000000
      Gh(H)           1.678531240871     0.373246796571    -2.148941413120     1.007825032230
      Gh(H)           3.247043240871    -0.406120203429    -1.970660413120     1.007825032230
      Gh(H)           3.124957240871     1.351627796571    -1.899805413120     1.007825032230
      Gh(C)           2.415054240871     0.331098796571    -0.112894413120    12.000000000000
      Gh(H)           3.375985240871     0.400478796571     0.404536586880     1.007825032230
      Gh(H)           1.819684240871     1.182982796571     0.228074586880     1.007825032230
      Gh(C)           1.717792240871    -0.960269203429     0.296248586880    12.000000000000
      Gh(H)           2.319641240871    -1.811463203429    -0.034557413120     1.007825032230
      Gh(H)           0.763394240871    -1.035852203429    -0.232343413120     1.007825032230
      Gh(C)           1.486203240871    -1.047230203429     1.799439586880    12.000000000000
      Gh(H)           0.883310240871    -0.206964203429     2.147940586880     1.007825032230
      Gh(H)           0.970367240871    -1.966937203429     2.076693586880     1.007825032230
      Gh(H)           2.433331240871    -1.019265203429     2.340163586880     1.007825032230

  Running in c1 symmetry.

  Rotational constants: A =      0.04569  B =      0.02699  C =      0.02273 [cm^-1]
  Rotational constants: A =   1369.66073  B =    809.12224  C =    681.48242 [MHz]
  Nuclear repulsion =  170.473605611703960

  Charge       = 0
  Multiplicity = 1
  Electrons    = 40
  Nalpha       = 20
  Nbeta        = 20

  ==> Algorithm <==

  SCF Algorithm Type is DF.
  DIIS enabled.
  MOM disabled.
  Fractional occupation disabled.
  Guess Type is SAD.
  Energy threshold   = 1.00e-08
  Density threshold  = 1.00e-08
  Integral threshold = 0.00e+00

  ==> Primary Basis <==

  Basis Set: JUN-CC-PVTZ
    Blend: JUN-CC-PVTZ
    Number of shells: 237
    Number of basis function: 631
    Number of Cartesian functions: 705
    Spherical Harmonics?: true
    Max angular momentum: 3

   => Loading Basis Set <=

    Name: (JUN-CC-PVTZ AUX)
    Role: JKFIT
    Keyword: DF_BASIS_SCF
    atoms 1-5, 16, 20, 23, 26              entry C          line   152 file /home/r08543048/miniconda3/share/psi4/basis/jun-cc-pvtz-jkfit.gbs 
    atoms 6-15, 17-19, 21-22, 24-25, 27-29 entry H          line    70 file /home/r08543048/miniconda3/share/psi4/basis/jun-cc-pvtz-jkfit.gbs 

  ==> Pre-Iterations <==

   -------------------------------------------------------
    Irrep   Nso     Nmo     Nalpha   Nbeta   Ndocc  Nsocc
   -------------------------------------------------------
     A        631     631       0       0       0       0
   -------------------------------------------------------
    Total     631     631      20      20      20       0
   -------------------------------------------------------

  ==> Integral Setup <==

  ==> DiskDFJK: Density-Fitted J/K Matrices <==

    J tasked:                  Yes
    K tasked:                  Yes
    wK tasked:                  No
    OpenMP threads:              1
    Integrals threads:           1
    Memory [MiB]:            15735
    Algorithm:                Core
    Integral Cache:           LOAD
    Schwarz Cutoff:          1E-12
    Fitting Condition:       1E-10

   => Auxiliary Basis Set <=

  Basis Set: (JUN-CC-PVTZ AUX)
    Blend: JUN-CC-PVTZ-JKFIT
    Number of shells: 461
    Number of basis function: 1455
    Number of Cartesian functions: 1744
    Spherical Harmonics?: true
    Max angular momentum: 4

  Minimum eigenvalue in the overlap matrix is 2.8459114764E-05.
  Using Symmetric Orthogonalization.

  SCF Guess: Superposition of Atomic Densities via on-the-fly atomic UHF.

  ==> Iterations <==

                           Total Energy        Delta E     RMS |[F,P]|

   @DF-RHF iter SAD:  -194.45316157646602   -1.94453e+02   0.00000e+00 
   @DF-RHF iter   1:  -194.99850708261357   -5.45346e-01   9.24964e-04 DIIS
   @DF-RHF iter   2:  -195.17544788111962   -1.76941e-01   4.05782e-04 DIIS
   @DF-RHF iter   3:  -195.20987136660946   -3.44235e-02   7.81109e-05 DIIS
   @DF-RHF iter   4:  -195.21220932267144   -2.33796e-03   2.60885e-05 DIIS
   @DF-RHF iter   5:  -195.21237683311023   -1.67510e-04   5.44714e-06 DIIS
   @DF-RHF iter   6:  -195.21238730022881   -1.04671e-05   1.23733e-06 DIIS
   @DF-RHF iter   7:  -195.21238779806640   -4.97838e-07   3.47784e-07 DIIS
   @DF-RHF iter   8:  -195.21238784123383   -4.31674e-08   7.82212e-08 DIIS
   @DF-RHF iter   9:  -195.21238784439186   -3.15802e-09   2.67882e-08 DIIS
   @DF-RHF iter  10:  -195.21238784481932   -4.27463e-10   9.18465e-09 DIIS
  Energy and wave function converged.


  ==> Post-Iterations <==

    Orbital Energies [Eh]
    ---------------------

    Doubly Occupied:                                                      

       1A    -11.230822     2A    -11.222094     3A    -11.219559  
       4A    -11.217167     5A    -11.211642     6A     -1.089570  
       7A     -1.022139     8A     -0.922634     9A     -0.811694  
      10A     -0.756979    11A     -0.650859    12A     -0.616840  
      13A     -0.589928    14A     -0.567102    15A     -0.537937  
      16A     -0.510911    17A     -0.483256    18A     -0.473223  
      19A     -0.469988    20A     -0.356139  

    Virtual:                                                              

      21A      0.030687    22A      0.042460    23A      0.048683  
      24A      0.054161    25A      0.065287    26A      0.068802  
      27A      0.069341    28A      0.070699    29A      0.079879  
      30A      0.089663    31A      0.096942    32A      0.104553  
      33A      0.105689    34A      0.110023    35A      0.111054  
      36A      0.115951    37A      0.117571    38A      0.126956  
      39A      0.133750    40A      0.140074    41A      0.144708  
      42A      0.147649    43A      0.150789    44A      0.154788  
      45A      0.159198    46A      0.167844    47A      0.169544  
      48A      0.174515    49A      0.181942    50A      0.184352  
      51A      0.187998    52A      0.193199    53A      0.199555  
      54A      0.201384    55A      0.211519    56A      0.212781  
      57A      0.217482    58A      0.240508    59A      0.247177  
      60A      0.257517    61A      0.271816    62A      0.279276  
      63A      0.282743    64A      0.286144    65A      0.293665  
      66A      0.302680    67A      0.310015    68A      0.314266  
      69A      0.316454    70A      0.321398    71A      0.329045  
      72A      0.333294    73A      0.338462    74A      0.340087  
      75A      0.345493    76A      0.350846    77A      0.356185  
      78A      0.357222    79A      0.367438    80A      0.368666  
      81A      0.374437    82A      0.379463    83A      0.383854  
      84A      0.389685    85A      0.390256    86A      0.399449  
      87A      0.404659    88A      0.405350    89A      0.413216  
      90A      0.420279    91A      0.426648    92A      0.431520  
      93A      0.439526    94A      0.442800    95A      0.452763  
      96A      0.454008    97A      0.458568    98A      0.467552  
      99A      0.471842   100A      0.476650   101A      0.481740  
     102A      0.489081   103A      0.500439   104A      0.506404  
     105A      0.517083   106A      0.518693   107A      0.523829  
     108A      0.526883   109A      0.539900   110A      0.545109  
     111A      0.552963   112A      0.558510   113A      0.560134  
     114A      0.572442   115A      0.574699   116A      0.581372  
     117A      0.588002   118A      0.594466   119A      0.602261  
     120A      0.604683   121A      0.608599   122A      0.611668  
     123A      0.620253   124A      0.628210   125A      0.633638  
     126A      0.639473   127A      0.644041   128A      0.651571  
     129A      0.660606   130A      0.665501   131A      0.673009  
     132A      0.682080   133A      0.685896   134A      0.693270  
     135A      0.703322   136A      0.711746   137A      0.722394  
     138A      0.735632   139A      0.737721   140A      0.746213  
     141A      0.753053   142A      0.759095   143A      0.771484  
     144A      0.785548   145A      0.797266   146A      0.803866  
     147A      0.812027   148A      0.821788   149A      0.830885  
     150A      0.839177   151A      0.846938   152A      0.849901  
     153A      0.861746   154A      0.864320   155A      0.875447  
     156A      0.880711   157A      0.892047   158A      0.898662  
     159A      0.907296   160A      0.915130   161A      0.923005  
     162A      0.937746   163A      0.946409   164A      0.963341  
     165A      0.980496   166A      1.006501   167A      1.022965  
     168A      1.026973   169A      1.039714   170A      1.056291  
     171A      1.059304   172A      1.068489   173A      1.082183  
     174A      1.087179   175A      1.106383   176A      1.123403  
     177A      1.130963   178A      1.138019   179A      1.140549  
     180A      1.156160   181A      1.158788   182A      1.164623  
     183A      1.172630   184A      1.178303   185A      1.196537  
     186A      1.199052   187A      1.206424   188A      1.213389  
     189A      1.216608   190A      1.229851   191A      1.239997  
     192A      1.241310   193A      1.244720   194A      1.258163  
     195A      1.268416   196A      1.272654   197A      1.282685  
     198A      1.296128   199A      1.302547   200A      1.305579  
     201A      1.309881   202A      1.314726   203A      1.321183  
     204A      1.331098   205A      1.343078   206A      1.348962  
     207A      1.355536   208A      1.361831   209A      1.366624  
     210A      1.373027   211A      1.382787   212A      1.390786  
     213A      1.402541   214A      1.412497   215A      1.422855  
     216A      1.423417   217A      1.433722   218A      1.439480  
     219A      1.447177   220A      1.450668   221A      1.467196  
     222A      1.470374   223A      1.477900   224A      1.500482  
     225A      1.505307   226A      1.510820   227A      1.516518  
     228A      1.526785   229A      1.535476   230A      1.546246  
     231A      1.555353   232A      1.559849   233A      1.571633  
     234A      1.579361   235A      1.581282   236A      1.594489  
     237A      1.601173   238A      1.604407   239A      1.608606  
     240A      1.614902   241A      1.617886   242A      1.625525  
     243A      1.633317   244A      1.645774   245A      1.649419  
     246A      1.666406   247A      1.669637   248A      1.675860  
     249A      1.688434   250A      1.702748   251A      1.709254  
     252A      1.721903   253A      1.726904   254A      1.745231  
     255A      1.752860   256A      1.767767   257A      1.773528  
     258A      1.778766   259A      1.792020   260A      1.795916  
     261A      1.804276   262A      1.815721   263A      1.845610  
     264A      1.850907   265A      1.861656   266A      1.872038  
     267A      1.890505   268A      1.897952   269A      1.913105  
     270A      1.931116   271A      1.945657   272A      1.968145  
     273A      1.974598   274A      1.981363   275A      1.993441  
     276A      2.010514   277A      2.025094   278A      2.036746  
     279A      2.049528   280A      2.103398   281A      2.111646  
     282A      2.121458   283A      2.129800   284A      2.133840  
     285A      2.170493   286A      2.191167   287A      2.194461  
     288A      2.261690   289A      2.271337   290A      2.284568  
     291A      2.321437   292A      2.339752   293A      2.344136  
     294A      2.393585   295A      2.425670   296A      2.473264  
     297A      2.481994   298A      2.501182   299A      2.534483  
     300A      2.629873   301A      2.655506   302A      2.681775  
     303A      2.694255   304A      2.713059   305A      2.774387  
     306A      2.786585   307A      2.807814   308A      2.833853  
     309A      2.852022   310A      2.859032   311A      2.876908  
     312A      2.893320   313A      2.918749   314A      2.928699  
     315A      2.948369   316A      2.972587   317A      3.001724  
     318A      3.010968   319A      3.032810   320A      3.045752  
     321A      3.059485   322A      3.090848   323A      3.104626  
     324A      3.136737   325A      3.158116   326A      3.170352  
     327A      3.174560   328A      3.197273   329A      3.205677  
     330A      3.232756   331A      3.236488   332A      3.249984  
     333A      3.273801   334A      3.288815   335A      3.303050  
     336A      3.326737   337A      3.348479   338A      3.357668  
     339A      3.378241   340A      3.388760   341A      3.398881  
     342A      3.403645   343A      3.410165   344A      3.424598  
     345A      3.451607   346A      3.468561   347A      3.475872  
     348A      3.481870   349A      3.494454   350A      3.501247  
     351A      3.513938   352A      3.522611   353A      3.533626  
     354A      3.535295   355A      3.543961   356A      3.563128  
     357A      3.567991   358A      3.570390   359A      3.575641  
     360A      3.586860   361A      3.593303   362A      3.595729  
     363A      3.597385   364A      3.606753   365A      3.613819  
     366A      3.629717   367A      3.630148   368A      3.640700  
     369A      3.651789   370A      3.671686   371A      3.677874  
     372A      3.681999   373A      3.692241   374A      3.702381  
     375A      3.730083   376A      3.746614   377A      3.754235  
     378A      3.769309   379A      3.770460   380A      3.783980  
     381A      3.799935   382A      3.808329   383A      3.816593  
     384A      3.821988   385A      3.834171   386A      3.842776  
     387A      3.853650   388A      3.860362   389A      3.868017  
     390A      3.875750   391A      3.879142   392A      3.898057  
     393A      3.904977   394A      3.914350   395A      3.921701  
     396A      3.927615   397A      3.940936   398A      3.948587  
     399A      3.958831   400A      3.975593   401A      3.980246  
     402A      3.985234   403A      3.992245   404A      4.009600  
     405A      4.017452   406A      4.032019   407A      4.045219  
     408A      4.054471   409A      4.075226   410A      4.078737  
     411A      4.101665   412A      4.106884   413A      4.123404  
     414A      4.153871   415A      4.162144   416A      4.170332  
     417A      4.180760   418A      4.187547   419A      4.198375  
     420A      4.215626   421A      4.220215   422A      4.235192  
     423A      4.248048   424A      4.257098   425A      4.263740  
     426A      4.275817   427A      4.282681   428A      4.291871  
     429A      4.307036   430A      4.313932   431A      4.333290  
     432A      4.337779   433A      4.349671   434A      4.364334  
     435A      4.365208   436A      4.374574   437A      4.384272  
     438A      4.386564   439A      4.395136   440A      4.398096  
     441A      4.411961   442A      4.418956   443A      4.438786  
     444A      4.454604   445A      4.455804   446A      4.471587  
     447A      4.476561   448A      4.487130   449A      4.493073  
     450A      4.507170   451A      4.512421   452A      4.515555  
     453A      4.524369   454A      4.535357   455A      4.543793  
     456A      4.556161   457A      4.560571   458A      4.577740  
     459A      4.585871   460A      4.601301   461A      4.607078  
     462A      4.616810   463A      4.622818   464A      4.636028  
     465A      4.642935   466A      4.649195   467A      4.658135  
     468A      4.668843   469A      4.681395   470A      4.690748  
     471A      4.706783   472A      4.714752   473A      4.718553  
     474A      4.735465   475A      4.744727   476A      4.749183  
     477A      4.755556   478A      4.760815   479A      4.761749  
     480A      4.772960   481A      4.786115   482A      4.794380  
     483A      4.796446   484A      4.810495   485A      4.823535  
     486A      4.827283   487A      4.841052   488A      4.850111  
     489A      4.858660   490A      4.872152   491A      4.882729  
     492A      4.896582   493A      4.900203   494A      4.901882  
     495A      4.912371   496A      4.915761   497A      4.919697  
     498A      4.932365   499A      4.940190   500A      4.947221  
     501A      4.949533   502A      4.962142   503A      4.969426  
     504A      4.994831   505A      4.995692   506A      5.004219  
     507A      5.018959   508A      5.023163   509A      5.032001  
     510A      5.036724   511A      5.041918   512A      5.062173  
     513A      5.074029   514A      5.102988   515A      5.117428  
     516A      5.123228   517A      5.144202   518A      5.153202  
     519A      5.159196   520A      5.189185   521A      5.195905  
     522A      5.207928   523A      5.214327   524A      5.228137  
     525A      5.245504   526A      5.264344   527A      5.272727  
     528A      5.289610   529A      5.299612   530A      5.305864  
     531A      5.314181   532A      5.346978   533A      5.348548  
     534A      5.357554   535A      5.378866   536A      5.388766  
     537A      5.403176   538A      5.437808   539A      5.446666  
     540A      5.458968   541A      5.470662   542A      5.483071  
     543A      5.500429   544A      5.522490   545A      5.533484  
     546A      5.557190   547A      5.571711   548A      5.578661  
     549A      5.616467   550A      5.641018   551A      5.647564  
     552A      5.655939   553A      5.675440   554A      5.699372  
     555A      5.723894   556A      5.764720   557A      5.783687  
     558A      5.792128   559A      5.805287   560A      5.824994  
     561A      5.831823   562A      5.846829   563A      5.881217  
     564A      5.914846   565A      5.931923   566A      5.943434  
     567A      5.954572   568A      5.961087   569A      5.997589  
     570A      6.027263   571A      6.033306   572A      6.049667  
     573A      6.076977   574A      6.119570   575A      6.143635  
     576A      6.150550   577A      6.232526   578A      6.288049  
     579A      6.340176   580A      6.355221   581A      6.388956  
     582A      6.395644   583A      6.405483   584A      6.413287  
     585A      6.432822   586A      6.478482   587A      6.488362  
     588A      6.498877   589A      6.518950   590A      6.539676  
     591A      6.558646   592A      6.564813   593A      6.620483  
     594A      6.666835   595A      6.717921   596A      6.745275  
     597A      6.800903   598A      6.817922   599A      6.951755  
     600A      7.079672   601A      7.270884   602A      7.517720  
     603A      7.543971   604A      7.590416   605A      7.596315  
     606A      7.604713   607A      7.682904   608A      7.723604  
     609A      7.750759   610A      7.813452   611A      7.817355  
     612A      7.848337   613A      7.936172   614A      7.945393  
     615A      8.122819   616A      8.320639   617A      8.464016  
     618A      8.654774   619A      9.616878   620A      9.724675  
     621A      9.914993   622A      9.952675   623A     12.339165  
     624A     13.924852   625A     14.504184   626A     14.675594  
     627A     15.379717   628A     44.102598   629A     45.567242  
     630A     45.609903   631A     45.817539  

    Final Occupation by Irrep:
              A 
    DOCC [    20 ]

  @DF-RHF Final Energy:  -195.21238784481932

   => Energetics <=

    Nuclear Repulsion Energy =            170.4736056117039595
    One-Electron Energy =                -599.4510202129181380
    Two-Electron Energy =                 233.7650267563948319
    Total Energy =                       -195.2123878448193182

Computation Completed


Properties will be evaluated at   0.000000,   0.000000,   0.000000 [a0]

Properties computed using the SCF density matrix

  Nuclear Dipole Moment: [e a0]
     X:  -128.0185      Y:    22.3729      Z:    -4.6693

  Electronic Dipole Moment: [e a0]
     X:   128.0288      Y:   -22.1956      Z:     4.6925

  Dipole Moment: [e a0]
     X:     0.0103      Y:     0.1773      Z:     0.0232     Total:     0.1791

  Dipole Moment: [D]
     X:     0.0262      Y:     0.4507      Z:     0.0589     Total:     0.4553


*** tstop() called on r282 at Fri Sep 10 21:52:55 2021
Module time:
	user time   =      90.77 seconds =       1.51 minutes
	system time =       1.14 seconds =       0.02 minutes
	total time  =         92 seconds =       1.53 minutes
Total time:
	user time   =     243.45 seconds =       4.06 minutes
	system time =       3.80 seconds =       0.06 minutes
	total time  =        248 seconds =       4.13 minutes

  //>>>>>>>>>>>>>>>>>>>>>>>>>>>>>>>>>>>//
  //            Monomer B HF           //
  //<<<<<<<<<<<<<<<<<<<<<<<<<<<<<<<<<<<//


*** tstart() called on r282
*** at Fri Sep 10 21:52:55 2021

   => Loading Basis Set <=

    Name: JUN-CC-PVTZ
    Role: ORBITAL
    Keyword: BASIS
    atoms 1-5, 16, 20, 23, 26              entry C          line   217 file /home/r08543048/miniconda3/share/psi4/basis/jun-cc-pvtz.gbs 
    atoms 6-15, 17-19, 21-22, 24-25, 27-29 entry H          line    36 file /home/r08543048/miniconda3/share/psi4/basis/jun-cc-pvtz.gbs 


         ---------------------------------------------------------
                                   SCF
               by Justin Turney, Rob Parrish, Andy Simmonett
                          and Daniel G. A. Smith
                              RHF Reference
                        1 Threads,  20980 MiB Core
         ---------------------------------------------------------

  ==> Geometry <==

    Molecular point group: c1
    Full point group: C1

    Geometry (in Angstrom), charge = 0, multiplicity = 1:

       Center              X                  Y                   Z               Mass       
    ------------   -----------------  -----------------  -----------------  -----------------
      Gh(C)          -1.997310759129    -2.130415203429    -0.548832413120    12.000000000000
      Gh(C)          -2.408561759129    -0.860868203429    -0.617956413120    12.000000000000
      Gh(C)          -2.027926759129     0.210337796571     0.352455586880    12.000000000000
      Gh(C)          -1.294022759129     1.369890796571    -0.323153413120    12.000000000000
      Gh(C)          -0.923240759129     2.466496796571     0.666829586880    12.000000000000
      Gh(H)          -1.356441759129    -2.464928203429     0.257759586880     1.007825032230
      Gh(H)          -2.293648759129    -2.860271203429    -1.289355413120     1.007825032230
      Gh(H)          -3.049990759129    -0.562067203429    -1.442727413120     1.007825032230
      Gh(H)          -2.926942759129     0.604642796571     0.837566586880     1.007825032230
      Gh(H)          -1.399967759129    -0.215310203429     1.139770586880     1.007825032230
      Gh(H)          -0.395537759129     0.985884796571    -0.811425413120     1.007825032230
      Gh(H)          -1.926412759129     1.781587796571    -1.114017413120     1.007825032230
      Gh(H)          -1.815770759129     2.881395796571     1.137197586880     1.007825032230
      Gh(H)          -0.283791759129     2.073251796571     1.458538586880     1.007825032230
      Gh(H)          -0.389591759129     3.282381796571     0.179724586880     1.007825032230
         C            2.630718240871     0.422055796571    -1.618305413120    12.000000000000
         H            1.678531240871     0.373246796571    -2.148941413120     1.007825032230
         H            3.247043240871    -0.406120203429    -1.970660413120     1.007825032230
         H            3.124957240871     1.351627796571    -1.899805413120     1.007825032230
         C            2.415054240871     0.331098796571    -0.112894413120    12.000000000000
         H            3.375985240871     0.400478796571     0.404536586880     1.007825032230
         H            1.819684240871     1.182982796571     0.228074586880     1.007825032230
         C            1.717792240871    -0.960269203429     0.296248586880    12.000000000000
         H            2.319641240871    -1.811463203429    -0.034557413120     1.007825032230
         H            0.763394240871    -1.035852203429    -0.232343413120     1.007825032230
         C            1.486203240871    -1.047230203429     1.799439586880    12.000000000000
         H            0.883310240871    -0.206964203429     2.147940586880     1.007825032230
         H            0.970367240871    -1.966937203429     2.076693586880     1.007825032230
         H            2.433331240871    -1.019265203429     2.340163586880     1.007825032230

  Running in c1 symmetry.

  Rotational constants: A =      0.04569  B =      0.02699  C =      0.02273 [cm^-1]
  Rotational constants: A =   1369.66073  B =    809.12224  C =    681.48242 [MHz]
  Nuclear repulsion =  131.091230877963739

  Charge       = 0
  Multiplicity = 1
  Electrons    = 34
  Nalpha       = 17
  Nbeta        = 17

  ==> Algorithm <==

  SCF Algorithm Type is DF.
  DIIS enabled.
  MOM disabled.
  Fractional occupation disabled.
  Guess Type is SAD.
  Energy threshold   = 1.00e-08
  Density threshold  = 1.00e-08
  Integral threshold = 0.00e+00

  ==> Primary Basis <==

  Basis Set: JUN-CC-PVTZ
    Blend: JUN-CC-PVTZ
    Number of shells: 237
    Number of basis function: 631
    Number of Cartesian functions: 705
    Spherical Harmonics?: true
    Max angular momentum: 3

   => Loading Basis Set <=

    Name: (JUN-CC-PVTZ AUX)
    Role: JKFIT
    Keyword: DF_BASIS_SCF
    atoms 1-5, 16, 20, 23, 26              entry C          line   152 file /home/r08543048/miniconda3/share/psi4/basis/jun-cc-pvtz-jkfit.gbs 
    atoms 6-15, 17-19, 21-22, 24-25, 27-29 entry H          line    70 file /home/r08543048/miniconda3/share/psi4/basis/jun-cc-pvtz-jkfit.gbs 

  ==> Pre-Iterations <==

   -------------------------------------------------------
    Irrep   Nso     Nmo     Nalpha   Nbeta   Ndocc  Nsocc
   -------------------------------------------------------
     A        631     631       0       0       0       0
   -------------------------------------------------------
    Total     631     631      17      17      17       0
   -------------------------------------------------------

  ==> Integral Setup <==

  ==> DiskDFJK: Density-Fitted J/K Matrices <==

    J tasked:                  Yes
    K tasked:                  Yes
    wK tasked:                  No
    OpenMP threads:              1
    Integrals threads:           1
    Memory [MiB]:            15735
    Algorithm:                Core
    Integral Cache:           LOAD
    Schwarz Cutoff:          1E-12
    Fitting Condition:       1E-10

   => Auxiliary Basis Set <=

  Basis Set: (JUN-CC-PVTZ AUX)
    Blend: JUN-CC-PVTZ-JKFIT
    Number of shells: 461
    Number of basis function: 1455
    Number of Cartesian functions: 1744
    Spherical Harmonics?: true
    Max angular momentum: 4

  Minimum eigenvalue in the overlap matrix is 2.8459114764E-05.
  Using Symmetric Orthogonalization.

  SCF Guess: Superposition of Atomic Densities via on-the-fly atomic UHF.

  ==> Iterations <==

                           Total Energy        Delta E     RMS |[F,P]|

   @DF-RHF iter SAD:  -156.79426177696539   -1.56794e+02   0.00000e+00 
   @DF-RHF iter   1:  -157.14974834582998   -3.55487e-01   9.13538e-04 DIIS
   @DF-RHF iter   2:  -157.31614590465739   -1.66398e-01   4.24840e-04 DIIS
   @DF-RHF iter   3:  -157.35342724355974   -3.72813e-02   7.48541e-05 DIIS
   @DF-RHF iter   4:  -157.35582159646344   -2.39435e-03   1.74722e-05 DIIS
   @DF-RHF iter   5:  -157.35591328081290   -9.16843e-05   4.51672e-06 DIIS
   @DF-RHF iter   6:  -157.35592093579092   -7.65498e-06   5.64925e-07 DIIS
   @DF-RHF iter   7:  -157.35592111510840   -1.79317e-07   9.93950e-08 DIIS
   @DF-RHF iter   8:  -157.35592112007393   -4.96553e-09   2.21487e-08 DIIS
   @DF-RHF iter   9:  -157.35592112034118   -2.67249e-10   4.98503e-09 DIIS
  Energy and wave function converged.


  ==> Post-Iterations <==

    Orbital Energies [Eh]
    ---------------------

    Doubly Occupied:                                                      

       1A    -11.213492     2A    -11.212868     3A    -11.207629  
       4A    -11.207528     5A     -1.071411     6A     -0.980225  
       7A     -0.860074     8A     -0.787628     9A     -0.638863  
      10A     -0.584333    11A     -0.575573    12A     -0.566699  
      13A     -0.514082    14A     -0.493855    15A     -0.469589  
      16A     -0.461550    17A     -0.455925  

    Virtual:                                                              

      18A      0.029414    19A      0.040669    20A      0.047163  
      21A      0.052582    22A      0.064153    23A      0.066830  
      24A      0.068953    25A      0.075721    26A      0.078028  
      27A      0.088370    28A      0.097725    29A      0.104615  
      30A      0.108248    31A      0.110267    32A      0.112596  
      33A      0.113156    34A      0.116618    35A      0.124709  
      36A      0.136383    37A      0.138196    38A      0.143255  
      39A      0.148833    40A      0.149730    41A      0.156630  
      42A      0.158177    43A      0.159577    44A      0.171574  
      45A      0.174737    46A      0.177673    47A      0.182983  
      48A      0.185855    49A      0.194947    50A      0.199123  
      51A      0.204214    52A      0.213480    53A      0.219759  
      54A      0.235963    55A      0.248751    56A      0.255396  
      57A      0.267740    58A      0.274014    59A      0.284540  
      60A      0.288179    61A      0.299326    62A      0.305734  
      63A      0.308388    64A      0.310655    65A      0.314180  
      66A      0.319039    67A      0.323824    68A      0.325010  
      69A      0.329327    70A      0.334278    71A      0.340719  
      72A      0.346370    73A      0.351189    74A      0.352541  
      75A      0.360740    76A      0.366643    77A      0.372361  
      78A      0.375721    79A      0.379213    80A      0.384871  
      81A      0.388814    82A      0.390891    83A      0.397030  
      84A      0.401571    85A      0.404231    86A      0.410456  
      87A      0.412729    88A      0.423510    89A      0.432742  
      90A      0.434707    91A      0.440688    92A      0.442514  
      93A      0.447896    94A      0.458546    95A      0.469147  
      96A      0.472054    97A      0.481299    98A      0.488650  
      99A      0.493698   100A      0.504584   101A      0.516569  
     102A      0.520088   103A      0.524376   104A      0.532088  
     105A      0.537904   106A      0.542098   107A      0.548080  
     108A      0.552523   109A      0.562608   110A      0.570315  
     111A      0.575417   112A      0.577686   113A      0.583977  
     114A      0.589180   115A      0.597958   116A      0.602126  
     117A      0.610388   118A      0.613620   119A      0.621644  
     120A      0.626607   121A      0.634883   122A      0.636862  
     123A      0.643698   124A      0.654133   125A      0.655518  
     126A      0.674302   127A      0.674504   128A      0.682657  
     129A      0.690655   130A      0.693424   131A      0.707109  
     132A      0.711019   133A      0.720732   134A      0.723287  
     135A      0.723700   136A      0.738961   137A      0.745120  
     138A      0.750488   139A      0.761539   140A      0.766800  
     141A      0.781913   142A      0.788386   143A      0.805909  
     144A      0.810879   145A      0.821162   146A      0.826227  
     147A      0.832846   148A      0.838524   149A      0.843388  
     150A      0.856233   151A      0.864038   152A      0.873509  
     153A      0.881710   154A      0.885915   155A      0.894391  
     156A      0.902044   157A      0.905839   158A      0.934308  
     159A      0.943169   160A      0.949386   161A      0.953625  
     162A      0.965482   163A      0.999051   164A      1.003780  
     165A      1.011562   166A      1.029444   167A      1.061222  
     168A      1.078878   169A      1.082260   170A      1.098008  
     171A      1.114777   172A      1.124497   173A      1.136392  
     174A      1.150734   175A      1.158377   176A      1.167026  
     177A      1.174374   178A      1.181982   179A      1.183729  
     180A      1.200735   181A      1.201851   182A      1.204534  
     183A      1.217482   184A      1.233790   185A      1.235759  
     186A      1.244968   187A      1.247665   188A      1.259769  
     189A      1.264148   190A      1.278575   191A      1.285488  
     192A      1.291574   193A      1.302499   194A      1.311392  
     195A      1.313480   196A      1.324956   197A      1.333770  
     198A      1.334540   199A      1.348686   200A      1.354369  
     201A      1.363053   202A      1.364995   203A      1.369594  
     204A      1.378717   205A      1.382699   206A      1.399943  
     207A      1.403476   208A      1.412751   209A      1.413886  
     210A      1.418003   211A      1.427754   212A      1.431787  
     213A      1.438419   214A      1.446177   215A      1.460370  
     216A      1.464347   217A      1.473071   218A      1.480028  
     219A      1.486456   220A      1.493202   221A      1.499741  
     222A      1.505682   223A      1.514412   224A      1.520547  
     225A      1.530129   226A      1.544702   227A      1.548148  
     228A      1.548592   229A      1.555475   230A      1.564460  
     231A      1.569382   232A      1.584324   233A      1.594591  
     234A      1.599024   235A      1.599749   236A      1.611371  
     237A      1.616333   238A      1.630223   239A      1.635211  
     240A      1.638138   241A      1.653579   242A      1.658174  
     243A      1.660762   244A      1.674216   245A      1.683531  
     246A      1.693016   247A      1.701577   248A      1.708386  
     249A      1.709820   250A      1.717512   251A      1.731026  
     252A      1.738450   253A      1.754839   254A      1.775518  
     255A      1.778965   256A      1.786202   257A      1.801778  
     258A      1.813325   259A      1.818637   260A      1.833440  
     261A      1.858319   262A      1.870388   263A      1.876091  
     264A      1.886829   265A      1.910147   266A      1.916945  
     267A      1.925408   268A      1.933945   269A      1.957907  
     270A      1.959430   271A      1.974318   272A      1.979438  
     273A      2.001892   274A      2.011735   275A      2.036186  
     276A      2.048430   277A      2.068622   278A      2.077993  
     279A      2.092876   280A      2.104221   281A      2.127438  
     282A      2.161979   283A      2.169489   284A      2.197329  
     285A      2.227379   286A      2.246033   287A      2.267570  
     288A      2.303597   289A      2.348139   290A      2.367092  
     291A      2.406639   292A      2.432679   293A      2.453981  
     294A      2.477920   295A      2.501322   296A      2.557812  
     297A      2.588691   298A      2.632775   299A      2.658236  
     300A      2.678713   301A      2.755158   302A      2.759840  
     303A      2.775355   304A      2.818990   305A      2.830789  
     306A      2.866343   307A      2.889547   308A      2.906518  
     309A      2.925298   310A      2.936367   311A      2.950238  
     312A      2.957719   313A      2.982124   314A      3.015975  
     315A      3.029403   316A      3.060627   317A      3.101685  
     318A      3.137032   319A      3.141062   320A      3.153159  
     321A      3.157088   322A      3.168555   323A      3.177583  
     324A      3.222308   325A      3.253527   326A      3.278969  
     327A      3.294329   328A      3.307931   329A      3.321638  
     330A      3.344819   331A      3.363954   332A      3.376719  
     333A      3.407693   334A      3.409701   335A      3.413519  
     336A      3.417430   337A      3.437868   338A      3.450585  
     339A      3.467562   340A      3.472185   341A      3.489235  
     342A      3.495962   343A      3.503649   344A      3.505969  
     345A      3.508700   346A      3.518633   347A      3.533045  
     348A      3.552767   349A      3.562374   350A      3.569008  
     351A      3.574530   352A      3.577441   353A      3.594147  
     354A      3.599406   355A      3.606436   356A      3.628218  
     357A      3.636070   358A      3.642425   359A      3.648566  
     360A      3.654252   361A      3.670448   362A      3.676097  
     363A      3.686076   364A      3.689718   365A      3.692236  
     366A      3.721714   367A      3.723579   368A      3.744167  
     369A      3.750503   370A      3.751076   371A      3.770585  
     372A      3.783263   373A      3.787806   374A      3.800562  
     375A      3.818017   376A      3.824585   377A      3.835779  
     378A      3.836967   379A      3.853672   380A      3.856326  
     381A      3.864493   382A      3.882407   383A      3.885503  
     384A      3.891628   385A      3.903633   386A      3.914871  
     387A      3.921775   388A      3.936886   389A      3.952725  
     390A      3.958541   391A      3.963314   392A      3.966772  
     393A      3.980040   394A      3.981909   395A      3.988175  
     396A      4.001468   397A      4.015182   398A      4.035788  
     399A      4.048195   400A      4.069274   401A      4.073848  
     402A      4.081632   403A      4.099631   404A      4.125671  
     405A      4.146863   406A      4.154147   407A      4.171940  
     408A      4.181827   409A      4.185209   410A      4.197068  
     411A      4.200980   412A      4.203800   413A      4.217177  
     414A      4.221929   415A      4.227709   416A      4.237819  
     417A      4.246055   418A      4.265934   419A      4.272623  
     420A      4.276822   421A      4.287844   422A      4.295619  
     423A      4.304678   424A      4.317528   425A      4.328541  
     426A      4.337999   427A      4.348506   428A      4.359733  
     429A      4.373055   430A      4.383822   431A      4.390963  
     432A      4.404238   433A      4.416361   434A      4.427016  
     435A      4.433991   436A      4.443411   437A      4.452375  
     438A      4.455557   439A      4.473836   440A      4.481018  
     441A      4.483607   442A      4.492961   443A      4.511186  
     444A      4.512617   445A      4.520940   446A      4.524567  
     447A      4.541269   448A      4.544658   449A      4.548767  
     450A      4.564033   451A      4.574279   452A      4.578734  
     453A      4.588622   454A      4.596851   455A      4.611834  
     456A      4.622760   457A      4.628224   458A      4.630372  
     459A      4.636664   460A      4.643029   461A      4.656768  
     462A      4.659685   463A      4.664878   464A      4.681378  
     465A      4.690173   466A      4.698549   467A      4.708937  
     468A      4.721452   469A      4.726509   470A      4.741490  
     471A      4.744877   472A      4.753224   473A      4.762572  
     474A      4.767308   475A      4.779391   476A      4.790761  
     477A      4.794809   478A      4.807031   479A      4.815175  
     480A      4.822841   481A      4.840650   482A      4.850736  
     483A      4.853877   484A      4.864354   485A      4.873404  
     486A      4.879223   487A      4.892651   488A      4.901485  
     489A      4.908506   490A      4.914886   491A      4.923410  
     492A      4.933556   493A      4.945969   494A      4.955477  
     495A      4.963029   496A      4.979610   497A      4.988127  
     498A      4.990211   499A      5.009076   500A      5.025597  
     501A      5.027785   502A      5.046378   503A      5.053133  
     504A      5.059166   505A      5.079393   506A      5.081717  
     507A      5.112955   508A      5.122640   509A      5.130031  
     510A      5.137859   511A      5.154072   512A      5.155272  
     513A      5.172614   514A      5.180554   515A      5.193330  
     516A      5.216914   517A      5.230603   518A      5.248117  
     519A      5.267267   520A      5.267802   521A      5.281505  
     522A      5.301908   523A      5.307992   524A      5.316665  
     525A      5.326398   526A      5.342127   527A      5.357659  
     528A      5.371274   529A      5.373056   530A      5.385905  
     531A      5.398237   532A      5.428093   533A      5.438676  
     534A      5.453806   535A      5.462164   536A      5.473423  
     537A      5.490793   538A      5.497564   539A      5.546163  
     540A      5.562143   541A      5.564861   542A      5.579202  
     543A      5.624671   544A      5.644105   545A      5.663443  
     546A      5.668192   547A      5.677664   548A      5.696382  
     549A      5.709046   550A      5.727541   551A      5.757902  
     552A      5.763060   553A      5.784247   554A      5.790723  
     555A      5.807827   556A      5.815434   557A      5.852842  
     558A      5.869215   559A      5.876897   560A      5.913020  
     561A      5.915497   562A      5.962000   563A      5.964264  
     564A      5.969100   565A      5.997235   566A      6.003664  
     567A      6.013472   568A      6.032023   569A      6.048836  
     570A      6.064186   571A      6.081299   572A      6.094840  
     573A      6.133763   574A      6.199928   575A      6.218754  
     576A      6.254102   577A      6.282684   578A      6.330580  
     579A      6.368540   580A      6.375247   581A      6.408833  
     582A      6.451171   583A      6.494187   584A      6.503113  
     585A      6.524079   586A      6.529595   587A      6.561855  
     588A      6.567131   589A      6.611513   590A      6.654271  
     591A      6.672173   592A      6.697038   593A      6.752655  
     594A      6.789683   595A      6.823509   596A      6.941549  
     597A      7.042074   598A      7.121548   599A      7.322496  
     600A      7.412203   601A      7.474936   602A      7.548114  
     603A      7.595427   604A      7.653631   605A      7.706340  
     606A      7.720189   607A      7.755531   608A      7.833301  
     609A      7.881371   610A      7.911083   611A      7.988174  
     612A      8.063903   613A      8.165551   614A      8.312017  
     615A      8.392411   616A      8.627924   617A      8.864099  
     618A      9.441258   619A      9.672799   620A      9.772654  
     621A      9.948495   622A     10.223294   623A     13.879010  
     624A     14.337883   625A     14.578450   626A     14.698390  
     627A     41.075409   628A     44.322539   629A     45.727974  
     630A     46.028046   631A     47.245683  

    Final Occupation by Irrep:
              A 
    DOCC [    17 ]

  @DF-RHF Final Energy:  -157.35592112034118

   => Energetics <=

    Nuclear Repulsion Energy =            131.0912308779637385
    One-Electron Energy =                -470.2916534669467978
    Two-Electron Energy =                 181.8445014686419086
    Total Energy =                       -157.3559211203411792

Computation Completed


Properties will be evaluated at   0.000000,   0.000000,   0.000000 [a0]

Properties computed using the SCF density matrix

  Nuclear Dipole Moment: [e a0]
     X:   132.4979      Y:   -20.1527      Z:     5.8544

  Electronic Dipole Moment: [e a0]
     X:  -132.4968      Y:    20.1523      Z:    -5.8544

  Dipole Moment: [e a0]
     X:     0.0011      Y:    -0.0004      Z:    -0.0000     Total:     0.0011

  Dipole Moment: [D]
     X:     0.0027      Y:    -0.0010      Z:    -0.0000     Total:     0.0029


*** tstop() called on r282 at Fri Sep 10 21:54:18 2021
Module time:
	user time   =      81.64 seconds =       1.36 minutes
	system time =       1.13 seconds =       0.02 minutes
	total time  =         83 seconds =       1.38 minutes
Total time:
	user time   =     325.09 seconds =       5.42 minutes
	system time =       4.93 seconds =       0.08 minutes
	total time  =        331 seconds =       5.52 minutes
  Constructing Basis Sets for SAPT...

   => Loading Basis Set <=

    Name: (JUN-CC-PVTZ AUX)
    Role: RIFIT
    Keyword: DF_BASIS_SAPT
    atoms 1-5, 16, 20, 23, 26              entry C          line   132 file /home/r08543048/miniconda3/share/psi4/basis/jun-cc-pvtz-ri.gbs 
    atoms 6-15, 17-19, 21-22, 24-25, 27-29 entry H          line    30 file /home/r08543048/miniconda3/share/psi4/basis/jun-cc-pvtz-ri.gbs 


  //>>>>>>>>>>>>>>>>>>>>>>>>>>>>>>>>>>>//
  //               SAPT0               //
  //<<<<<<<<<<<<<<<<<<<<<<<<<<<<<<<<<<<//


*** tstart() called on r282
*** at Fri Sep 10 21:54:18 2021

        SAPT0  
    Ed Hohenstein
     6 June 2009

      Orbital Information
  --------------------------
    NSO        =       631
    NMO        =       631
    NRI        =      1473
    NOCC A     =        20
    NOCC B     =        17
    FOCC A     =         0
    FOCC B     =         0
    NVIR A     =       611
    NVIR B     =       614

    Elst10,r            =    -0.002443029594 [Eh]
    Exch10              =     0.007334232928 [Eh]
    Exch10 (S^2)        =     0.007318832117 [Eh]

    Iter     Energy [mEh]          dE [mEh]         Residual      Time [s]
       1      -0.58128586       0.581285862       3.049070683             2
       2      -0.71445165       0.133165792       0.550028516             4
       3      -0.71353725      -0.000914404       0.181852839             6
       4      -0.71198437      -0.001552881       0.045095888             8
       5      -0.71211073       0.000126357       0.014615248            10
       6      -0.71220997       0.000099243       0.003345997            12
       7      -0.71220084      -0.000009132       0.001305598            14
       8      -0.71219516      -0.000005675       0.000434616            17
       9      -0.71219669       0.000001532       0.000135032            19
      10      -0.71219693       0.000000237       0.000043787            21
      11      -0.71219680      -0.000000131       0.000010951            23
      12      -0.71219679      -0.000000005       0.000002758            25
      13      -0.71219680       0.000000007       0.000000707            27

    CHF Iterations converged


    Iter     Energy [mEh]          dE [mEh]         Residual      Time [s]
       1      -0.51559932       0.515599323       2.880037486             2
       2      -0.62370279       0.108103471       0.509651453             4
       3      -0.62424787       0.000545074       0.137084346             6
       4      -0.62307682      -0.001171050       0.035390269             8
       5      -0.62306098      -0.000015833       0.009712730            10
       6      -0.62312858       0.000067594       0.002058487            12
       7      -0.62312631      -0.000002267       0.000564748            14
       8      -0.62312383      -0.000002484       0.000122388            16
       9      -0.62312399       0.000000158       0.000030494            18
      10      -0.62312408       0.000000092       0.000006776            20
      11      -0.62312406      -0.000000014       0.000001475            22
      12      -0.62312406      -0.000000002       0.000000466            23

    CHF Iterations converged

    Ind20,r (A<-B)      =    -0.000712196800 [Eh]
    Ind20,r (B<-A)      =    -0.000623124061 [Eh]
    Ind20,r             =    -0.001335320861 [Eh]
    Exch-Ind20,r (A<-B) =     0.000642909079 [Eh]
    Exch-Ind20,r (B<-A) =     0.000521797936 [Eh]
    Exch-Ind20,r        =     0.001164707015 [Eh]
    Disp20              =    -0.009983682696 [Eh]
    Disp20 (SS)         =    -0.004991841348 [Eh]
    Disp20 (OS)         =    -0.004991841348 [Eh]
    Exch-Disp20         =     0.000853112002 [Eh]
    Exch-Disp20 (SS)    =     0.000559772959 [Eh]
    Exch-Disp20 (OS)    =     0.000293339043 [Eh]

    SAPT Results 
  --------------------------------------------------------------------------------------------------------
    Electrostatics                 -2.44302959 [mEh]      -1.53302422 [kcal/mol]      -6.41417332 [kJ/mol]
      Elst10,r                     -2.44302959 [mEh]      -1.53302422 [kcal/mol]      -6.41417332 [kJ/mol]

    Exchange                        7.33423293 [mEh]       4.60230065 [kcal/mol]      19.25602590 [kJ/mol]
      Exch10                        7.33423293 [mEh]       4.60230065 [kcal/mol]      19.25602590 [kJ/mol]
      Exch10(S^2)                   7.31883212 [mEh]       4.59263649 [kcal/mol]      19.21559108 [kJ/mol]

    Induction                      -0.70535827 [mEh]      -0.44261900 [kcal/mol]      -1.85191789 [kJ/mol]
      Ind20,r                      -1.33532086 [mEh]      -0.83792649 [kcal/mol]      -3.50588444 [kJ/mol]
      Exch-Ind20,r                  1.16470701 [mEh]       0.73086469 [kcal/mol]       3.05793785 [kJ/mol]
      delta HF,r (2)               -0.53474443 [mEh]      -0.33555719 [kcal/mol]      -1.40397130 [kJ/mol]

    Dispersion                     -9.13057069 [mEh]      -5.72951961 [kcal/mol]     -23.97231005 [kJ/mol]
      Disp20                       -9.98368270 [mEh]      -6.26485547 [kcal/mol]     -26.21215531 [kJ/mol]
      Exch-Disp20                   0.85311200 [mEh]       0.53533586 [kcal/mol]       2.23984525 [kJ/mol]
      Disp20 (SS)                  -4.99184135 [mEh]      -3.13242774 [kcal/mol]     -13.10607765 [kJ/mol]
      Disp20 (OS)                  -4.99184135 [mEh]      -3.13242774 [kcal/mol]     -13.10607765 [kJ/mol]
      Exch-Disp20 (SS)              0.55977296 [mEh]       0.35126284 [kcal/mol]       1.46968370 [kJ/mol]
      Exch-Disp20 (OS)              0.29333904 [mEh]       0.18407303 [kcal/mol]       0.77016155 [kJ/mol]

  Total HF                          4.18584506 [mEh]       2.62665743 [kcal/mol]      10.98993469 [kJ/mol]
  Total SAPT0                      -4.94472563 [mEh]      -3.10286218 [kcal/mol]     -12.98237536 [kJ/mol]

  Special recipe for scaled SAPT0 (see Manual):
    Electrostatics sSAPT0          -2.44302959 [mEh]      -1.53302422 [kcal/mol]      -6.41417332 [kJ/mol]
    Exchange sSAPT0                 7.33423293 [mEh]       4.60230065 [kcal/mol]      19.25602590 [kJ/mol]
    Induction sSAPT0               -0.69799021 [mEh]      -0.43799547 [kcal/mol]      -1.83257305 [kJ/mol]
    Dispersion sSAPT0              -9.12517381 [mEh]      -5.72613302 [kcal/mol]     -23.95814055 [kJ/mol]
  Total sSAPT0                     -4.93196069 [mEh]      -3.09485206 [kcal/mol]     -12.94886101 [kJ/mol]
  --------------------------------------------------------------------------------------------------------

*** tstop() called on r282 at Fri Sep 10 21:58:44 2021
Module time:
	user time   =     234.03 seconds =       3.90 minutes
	system time =      31.47 seconds =       0.52 minutes
	total time  =        266 seconds =       4.43 minutes
Total time:
	user time   =     559.31 seconds =       9.32 minutes
	system time =      36.40 seconds =       0.61 minutes
	total time  =        597 seconds =       9.95 minutes

    Psi4 stopped on: Friday, 10 September 2021 09:58PM
    Psi4 wall time for execution: 0:09:56.56

*** Psi4 exiting successfully. Buy a developer a beer!
