
    -----------------------------------------------------------------------
          Psi4: An Open-Source Ab Initio Electronic Structure Package
                               Psi4 1.3.2 release

                         Git: Rev {HEAD} ecbda83 


    R. M. Parrish, L. A. Burns, D. G. A. Smith, A. C. Simmonett,
    A. E. DePrince III, E. G. Hohenstein, U. Bozkaya, A. Yu. Sokolov,
    R. Di Remigio, R. M. Richard, J. F. Gonthier, A. M. James,
    H. R. McAlexander, A. Kumar, M. Saitow, X. Wang, B. P. Pritchard,
    P. Verma, H. F. Schaefer III, K. Patkowski, R. A. King, E. F. Valeev,
    F. A. Evangelista, J. M. Turney, T. D. Crawford, and C. D. Sherrill,
    J. Chem. Theory Comput. 13(7) pp 3185--3197 (2017).
    (doi: 10.1021/acs.jctc.7b00174)


                         Additional Contributions by
    P. Kraus, H. Kruse, M. H. Lechner, M. C. Schieber, R. A. Shaw,
    A. Alenaizan, R. Galvelis, Z. L. Glick, S. Lehtola, and J. P. Misiewicz

    -----------------------------------------------------------------------


    Psi4 started on: Friday, 10 September 2021 09:27PM

    Process ID: 57196
    Host:       r282
    PSIDATADIR: /home/r08543048/miniconda3/share/psi4
    Memory:     500.0 MiB
    Threads:    1
    
  ==> Input File <==

--------------------------------------------------------------------------
# Any line starting with the # character is a comment line
#! Sample  computation

memory 22 gb

molecule Dimer {
0 1
 C 1.657858   -1.586637   -0.2490251
 C 2.102226   -0.351076   -0.4944575
 C 2.580502    0.599259    0.5555385
 H 1.322499   -2.233865   -1.0473424
 H 1.623835   -1.976129    0.7610152
 H 2.122384    0.000499   -1.5212818
 H 1.983496    1.512960    0.554444
 H 2.520021    0.149260    1.545886
 H 3.615421    0.892903    0.373191





 






 --
0 1
 C -0.822034    2.071977   -0.329634
 H -1.674771    2.491444   -0.865536
 H -0.060574    1.816172   -1.068486
 H -0.417305    2.851551    0.316251
 C -1.233871    0.837552    0.461824
 H -0.369125    0.435741    0.996553
 H -1.972440    1.111345    1.220523
 C -1.810963   -0.254847   -0.428873
 H -1.080925   -0.498257   -1.205113
 H -2.697973    0.129421   -0.940383
 C -2.165905   -1.513020    0.352401
 H -2.896975   -1.292958    1.131760
 H -2.586076   -2.284247   -0.293019
 H -1.278370   -1.925079    0.834893







units angstrom

no_reorient
symmetry c1
}

set globals{
  basis jun-cc-pvtz
}

energy('sapt0')


--------------------------------------------------------------------------

  Memory set to  20.489 GiB by Python driver.

  //>>>>>>>>>>>>>>>>>>>>>>>>>>>>>>>>>>>//
  //              Dimer HF             //
  //<<<<<<<<<<<<<<<<<<<<<<<<<<<<<<<<<<<//


*** tstart() called on r282
*** at Fri Sep 10 21:27:22 2021

   => Loading Basis Set <=

    Name: JUN-CC-PVTZ
    Role: ORBITAL
    Keyword: BASIS
    atoms 1-3, 10, 14, 17, 20             entry C          line   217 file /home/r08543048/miniconda3/share/psi4/basis/jun-cc-pvtz.gbs 
    atoms 4-9, 11-13, 15-16, 18-19, 21-23 entry H          line    36 file /home/r08543048/miniconda3/share/psi4/basis/jun-cc-pvtz.gbs 


         ---------------------------------------------------------
                                   SCF
               by Justin Turney, Rob Parrish, Andy Simmonett
                          and Daniel G. A. Smith
                              RHF Reference
                        1 Threads,  20980 MiB Core
         ---------------------------------------------------------

  ==> Geometry <==

    Molecular point group: c1
    Full point group: C1

    Geometry (in Angstrom), charge = 0, multiplicity = 1:

       Center              X                  Y                   Z               Mass       
    ------------   -----------------  -----------------  -----------------  -----------------
         C            1.639556652181    -1.574936613873    -0.241163441122    12.000000000000
         C            2.083924652181    -0.339375613873    -0.486595841122    12.000000000000
         C            2.562200652181     0.610959386127     0.563400158878    12.000000000000
         H            1.304197652181    -2.222164613873    -1.039480741122     1.007825032230
         H            1.605533652181    -1.964428613873     0.768876858878     1.007825032230
         H            2.104082652181     0.012199386127    -1.513420141122     1.007825032230
         H            1.965194652181     1.524660386127     0.562305658878     1.007825032230
         H            2.501719652181     0.160960386127     1.553747658878     1.007825032230
         H            3.597119652181     0.904603386127     0.381052658878     1.007825032230
         C           -0.840335347819     2.083677386127    -0.321772341122    12.000000000000
         H           -1.693072347819     2.503144386127    -0.857674341122     1.007825032230
         H           -0.078875347819     1.827872386127    -1.060624341122     1.007825032230
         H           -0.435606347819     2.863251386127     0.324112658878     1.007825032230
         C           -1.252172347819     0.849252386127     0.469685658878    12.000000000000
         H           -0.387426347819     0.447441386127     1.004414658878     1.007825032230
         H           -1.990741347819     1.123045386127     1.228384658878     1.007825032230
         C           -1.829264347819    -0.243146613873    -0.421011341122    12.000000000000
         H           -1.099226347819    -0.486556613873    -1.197251341122     1.007825032230
         H           -2.716274347819     0.141121386127    -0.932521341122     1.007825032230
         C           -2.184206347819    -1.501319613873     0.360262658878    12.000000000000
         H           -2.915276347819    -1.281257613873     1.139621658878     1.007825032230
         H           -2.604377347819    -2.272546613873    -0.285157341122     1.007825032230
         H           -1.296671347819    -1.913378613873     0.842754658878     1.007825032230

  Running in c1 symmetry.

  Rotational constants: A =      0.08555  B =      0.04393  C =      0.03246 [cm^-1]
  Rotational constants: A =   2564.77735  B =   1317.06554  C =    973.23293 [MHz]
  Nuclear repulsion =  306.539712380425726

  Charge       = 0
  Multiplicity = 1
  Electrons    = 58
  Nalpha       = 29
  Nbeta        = 29

  ==> Algorithm <==

  SCF Algorithm Type is DF.
  DIIS enabled.
  MOM disabled.
  Fractional occupation disabled.
  Guess Type is SAD.
  Energy threshold   = 1.00e-08
  Density threshold  = 1.00e-08
  Integral threshold = 0.00e+00

  ==> Primary Basis <==

  Basis Set: JUN-CC-PVTZ
    Blend: JUN-CC-PVTZ
    Number of shells: 187
    Number of basis function: 497
    Number of Cartesian functions: 555
    Spherical Harmonics?: true
    Max angular momentum: 3

   => Loading Basis Set <=

    Name: (JUN-CC-PVTZ AUX)
    Role: JKFIT
    Keyword: DF_BASIS_SCF
    atoms 1-3, 10, 14, 17, 20             entry C          line   152 file /home/r08543048/miniconda3/share/psi4/basis/jun-cc-pvtz-jkfit.gbs 
    atoms 4-9, 11-13, 15-16, 18-19, 21-23 entry H          line    70 file /home/r08543048/miniconda3/share/psi4/basis/jun-cc-pvtz-jkfit.gbs 

  ==> Pre-Iterations <==

   -------------------------------------------------------
    Irrep   Nso     Nmo     Nalpha   Nbeta   Ndocc  Nsocc
   -------------------------------------------------------
     A        497     497       0       0       0       0
   -------------------------------------------------------
    Total     497     497      29      29      29       0
   -------------------------------------------------------

  ==> Integral Setup <==

  ==> DiskDFJK: Density-Fitted J/K Matrices <==

    J tasked:                  Yes
    K tasked:                  Yes
    wK tasked:                  No
    OpenMP threads:              1
    Integrals threads:           1
    Memory [MiB]:            15735
    Algorithm:                Core
    Integral Cache:           SAVE
    Schwarz Cutoff:          1E-12
    Fitting Condition:       1E-10

   => Auxiliary Basis Set <=

  Basis Set: (JUN-CC-PVTZ AUX)
    Blend: JUN-CC-PVTZ-JKFIT
    Number of shells: 363
    Number of basis function: 1145
    Number of Cartesian functions: 1372
    Spherical Harmonics?: true
    Max angular momentum: 4

  Minimum eigenvalue in the overlap matrix is 3.4173240253E-05.
  Using Symmetric Orthogonalization.

  SCF Guess: Superposition of Atomic Densities via on-the-fly atomic UHF.

  ==> Iterations <==

                           Total Energy        Delta E     RMS |[F,P]|

   @DF-RHF iter SAD:  -273.28432358749609   -2.73284e+02   0.00000e+00 
   @DF-RHF iter   1:  -274.13444552600293   -8.50122e-01   1.47732e-03 DIIS
   @DF-RHF iter   2:  -274.40685582361306   -2.72410e-01   6.73027e-04 DIIS
   @DF-RHF iter   3:  -274.46514216958565   -5.82863e-02   1.22700e-04 DIIS
   @DF-RHF iter   4:  -274.46894971703665   -3.80755e-03   3.28491e-05 DIIS
   @DF-RHF iter   5:  -274.46913996016576   -1.90243e-04   8.47327e-06 DIIS
   @DF-RHF iter   6:  -274.46915481433069   -1.48542e-05   1.88994e-06 DIIS
   @DF-RHF iter   7:  -274.46915562106693   -8.06736e-07   7.18493e-07 DIIS
   @DF-RHF iter   8:  -274.46915572729893   -1.06232e-07   1.87794e-07 DIIS
   @DF-RHF iter   9:  -274.46915574140820   -1.41093e-08   8.45812e-08 DIIS
   @DF-RHF iter  10:  -274.46915574414129   -2.73309e-09   2.27412e-08 DIIS
   @DF-RHF iter  11:  -274.46915574433757   -1.96280e-10   6.26649e-09 DIIS
  Energy and wave function converged.


  ==> Post-Iterations <==

    Orbital Energies [Eh]
    ---------------------

    Doubly Occupied:                                                      

       1A    -11.234899     2A    -11.221054     3A    -11.218344  
       4A    -11.208410     5A    -11.207448     6A    -11.206009  
       7A    -11.203607     8A     -1.069639     9A     -1.064289  
      10A     -0.977363    11A     -0.933916    12A     -0.856901  
      13A     -0.783418    14A     -0.759548    15A     -0.642241  
      16A     -0.636205    17A     -0.584666    18A     -0.581479  
      19A     -0.574910    20A     -0.570782    21A     -0.558372  
      22A     -0.524015    23A     -0.510810    24A     -0.494924  
      25A     -0.490392    26A     -0.465339    27A     -0.457622  
      28A     -0.452156    29A     -0.358915  

    Virtual:                                                              

      30A      0.049987    31A      0.051374    32A      0.054930  
      33A      0.061987    34A      0.070772    35A      0.074816  
      36A      0.077595    37A      0.088409    38A      0.089299  
      39A      0.108274    40A      0.111743    41A      0.112484  
      42A      0.119152    43A      0.120774    44A      0.125867  
      45A      0.129394    46A      0.145842    47A      0.149444  
      48A      0.151770    49A      0.157184    50A      0.161716  
      51A      0.179296    52A      0.180919    53A      0.192714  
      54A      0.193866    55A      0.204565    56A      0.214808  
      57A      0.224445    58A      0.229386    59A      0.255133  
      60A      0.266924    61A      0.276060    62A      0.281432  
      63A      0.284988    64A      0.288501    65A      0.302025  
      66A      0.306915    67A      0.313709    68A      0.314423  
      69A      0.320827    70A      0.326378    71A      0.330784  
      72A      0.331291    73A      0.336932    74A      0.347261  
      75A      0.350620    76A      0.354637    77A      0.355876  
      78A      0.366837    79A      0.369091    80A      0.378890  
      81A      0.382466    82A      0.387760    83A      0.391086  
      84A      0.396199    85A      0.401907    86A      0.408714  
      87A      0.420877    88A      0.425265    89A      0.435889  
      90A      0.437999    91A      0.451353    92A      0.461875  
      93A      0.467032    94A      0.477458    95A      0.486160  
      96A      0.488614    97A      0.494440    98A      0.516625  
      99A      0.524272   100A      0.530100   101A      0.532814  
     102A      0.542168   103A      0.546379   104A      0.555418  
     105A      0.564940   106A      0.570544   107A      0.574075  
     108A      0.577604   109A      0.582449   110A      0.592121  
     111A      0.605836   112A      0.614074   113A      0.621652  
     114A      0.642560   115A      0.651856   116A      0.680546  
     117A      0.699637   118A      0.709342   119A      0.718622  
     120A      0.727054   121A      0.728919   122A      0.744701  
     123A      0.750741   124A      0.753670   125A      0.758205  
     126A      0.766694   127A      0.771935   128A      0.779465  
     129A      0.790249   130A      0.794726   131A      0.804642  
     132A      0.818869   133A      0.823286   134A      0.836094  
     135A      0.837983   136A      0.845507   137A      0.851009  
     138A      0.862545   139A      0.867707   140A      0.877169  
     141A      0.888316   142A      0.894474   143A      0.897340  
     144A      0.910074   145A      0.922256   146A      0.926929  
     147A      0.931393   148A      0.941418   149A      0.965138  
     150A      0.973513   151A      0.997307   152A      1.006821  
     153A      1.010871   154A      1.020316   155A      1.028192  
     156A      1.037428   157A      1.048242   158A      1.073378  
     159A      1.086226   160A      1.096148   161A      1.119238  
     162A      1.121258   163A      1.146422   164A      1.157779  
     165A      1.173215   166A      1.190754   167A      1.193449  
     168A      1.200116   169A      1.225067   170A      1.235381  
     171A      1.249734   172A      1.268637   173A      1.277994  
     174A      1.293425   175A      1.307309   176A      1.317852  
     177A      1.328910   178A      1.343307   179A      1.347158  
     180A      1.354980   181A      1.366128   182A      1.381673  
     183A      1.386681   184A      1.394820   185A      1.406188  
     186A      1.419019   187A      1.423577   188A      1.432862  
     189A      1.442222   190A      1.467775   191A      1.473490  
     192A      1.477793   193A      1.494793   194A      1.495775  
     195A      1.498036   196A      1.516016   197A      1.524843  
     198A      1.541632   199A      1.550260   200A      1.560024  
     201A      1.565238   202A      1.579528   203A      1.598375  
     204A      1.605620   205A      1.611377   206A      1.615398  
     207A      1.619233   208A      1.633251   209A      1.642132  
     210A      1.644273   211A      1.653763   212A      1.673523  
     213A      1.677755   214A      1.702009   215A      1.716890  
     216A      1.718234   217A      1.737141   218A      1.756820  
     219A      1.771508   220A      1.776868   221A      1.780779  
     222A      1.807394   223A      1.817274   224A      1.835116  
     225A      1.863337   226A      1.872686   227A      1.886861  
     228A      1.894694   229A      1.905598   230A      1.928824  
     231A      1.933546   232A      1.952096   233A      1.958514  
     234A      1.993099   235A      2.014093   236A      2.047403  
     237A      2.061507   238A      2.081963   239A      2.091211  
     240A      2.161834   241A      2.233073   242A      2.710109  
     243A      2.716672   244A      2.744559   245A      2.752303  
     246A      2.781042   247A      2.789777   248A      2.808630  
     249A      2.817006   250A      2.824251   251A      2.841339  
     252A      2.857156   253A      2.864378   254A      2.870471  
     255A      2.891287   256A      2.903390   257A      2.910861  
     258A      2.920853   259A      2.926842   260A      2.940448  
     261A      2.977359   262A      2.991070   263A      2.997472  
     264A      3.027015   265A      3.033579   266A      3.050441  
     267A      3.066181   268A      3.077276   269A      3.100133  
     270A      3.107674   271A      3.113788   272A      3.137475  
     273A      3.140713   274A      3.146326   275A      3.153899  
     276A      3.159061   277A      3.163785   278A      3.181715  
     279A      3.197839   280A      3.200558   281A      3.220512  
     282A      3.230259   283A      3.243000   284A      3.264808  
     285A      3.269647   286A      3.278213   287A      3.295736  
     288A      3.301013   289A      3.315284   290A      3.319499  
     291A      3.338123   292A      3.341872   293A      3.347083  
     294A      3.357416   295A      3.366864   296A      3.379058  
     297A      3.385740   298A      3.394695   299A      3.413009  
     300A      3.418065   301A      3.424162   302A      3.426131  
     303A      3.439249   304A      3.449065   305A      3.457245  
     306A      3.471442   307A      3.485135   308A      3.485853  
     309A      3.494228   310A      3.500883   311A      3.511138  
     312A      3.521191   313A      3.526181   314A      3.542041  
     315A      3.557913   316A      3.570676   317A      3.588338  
     318A      3.590919   319A      3.596063   320A      3.602529  
     321A      3.614004   322A      3.627455   323A      3.640029  
     324A      3.652896   325A      3.657893   326A      3.668423  
     327A      3.679950   328A      3.700820   329A      3.716274  
     330A      3.724552   331A      3.743606   332A      3.752248  
     333A      3.758400   334A      3.763676   335A      3.793732  
     336A      3.805252   337A      3.810186   338A      3.824491  
     339A      3.835536   340A      3.841509   341A      3.852821  
     342A      3.867388   343A      3.880043   344A      3.890399  
     345A      3.920101   346A      3.954327   347A      3.964936  
     348A      3.965772   349A      3.968726   350A      3.975016  
     351A      3.992118   352A      4.001343   353A      4.011387  
     354A      4.018319   355A      4.043106   356A      4.057278  
     357A      4.082135   358A      4.097412   359A      4.112599  
     360A      4.156048   361A      4.161664   362A      4.181268  
     363A      4.192232   364A      4.195850   365A      4.214178  
     366A      4.224540   367A      4.242447   368A      4.261548  
     369A      4.271655   370A      4.280272   371A      4.296146  
     372A      4.303333   373A      4.316892   374A      4.322672  
     375A      4.336389   376A      4.344626   377A      4.356230  
     378A      4.375974   379A      4.384261   380A      4.393261  
     381A      4.397070   382A      4.400760   383A      4.405518  
     384A      4.422037   385A      4.427504   386A      4.450717  
     387A      4.458390   388A      4.461734   389A      4.475067  
     390A      4.481534   391A      4.497823   392A      4.510484  
     393A      4.518743   394A      4.540387   395A      4.543798  
     396A      4.548425   397A      4.550726   398A      4.571294  
     399A      4.577828   400A      4.602448   401A      4.614520  
     402A      4.634950   403A      4.641582   404A      4.659790  
     405A      4.663133   406A      4.682167   407A      4.693090  
     408A      4.719373   409A      4.725629   410A      4.741142  
     411A      4.753494   412A      4.795363   413A      4.811166  
     414A      4.819004   415A      4.847763   416A      4.857211  
     417A      4.870876   418A      4.902248   419A      4.907913  
     420A      4.917923   421A      4.944376   422A      4.977422  
     423A      5.035235   424A      5.046123   425A      5.060296  
     426A      5.086482   427A      5.120595   428A      5.127948  
     429A      5.140295   430A      5.163863   431A      5.184797  
     432A      5.214454   433A      5.221485   434A      5.248625  
     435A      5.268962   436A      5.271089   437A      5.299854  
     438A      5.304226   439A      5.315475   440A      5.320824  
     441A      5.336013   442A      5.357477   443A      5.361544  
     444A      5.368015   445A      5.377771   446A      5.389322  
     447A      5.433918   448A      5.444003   449A      5.469993  
     450A      5.473468   451A      5.488767   452A      5.542683  
     453A      5.565526   454A      5.567746   455A      5.632219  
     456A      5.635386   457A      5.662897   458A      5.674698  
     459A      5.691180   460A      5.696687   461A      5.754509  
     462A      5.758794   463A      5.773849   464A      5.784799  
     465A      5.794672   466A      5.807172   467A      5.815460  
     468A      5.859966   469A      5.864753   470A      5.910392  
     471A      5.917593   472A      5.964328   473A      5.969373  
     474A      5.978694   475A      5.991044   476A      6.011665  
     477A      6.088044   478A      6.103516   479A      6.194891  
     480A      6.400373   481A      6.453619   482A      6.468159  
     483A      6.499066   484A      6.523996   485A      6.532579  
     486A      6.555797   487A      6.560357   488A      6.592547  
     489A      6.650505   490A      6.709710   491A     12.339078  
     492A     13.749796   493A     14.264006   494A     14.557261  
     495A     14.671583   496A     14.718443   497A     15.400867  

    Final Occupation by Irrep:
              A 
    DOCC [    29 ]

  @DF-RHF Final Energy:  -274.46915574433757

   => Energetics <=

    Nuclear Repulsion Energy =            306.5397123804257262
    One-Electron Energy =                -976.3223908709438774
    Two-Electron Energy =                 395.3135227461805812
    Total Energy =                       -274.4691557443375700

Computation Completed


Properties will be evaluated at   0.000000,   0.000000,   0.000000 [a0]

Properties computed using the SCF density matrix

  Nuclear Dipole Moment: [e a0]
     X:    -2.0059      Y:     1.2824      Z:     0.8617

  Electronic Dipole Moment: [e a0]
     X:     2.0945      Y:    -1.1564      Z:    -0.8419

  Dipole Moment: [e a0]
     X:     0.0886      Y:     0.1260      Z:     0.0198     Total:     0.1553

  Dipole Moment: [D]
     X:     0.2251      Y:     0.3203      Z:     0.0503     Total:     0.3947


*** tstop() called on r282 at Fri Sep 10 21:28:26 2021
Module time:
	user time   =      63.00 seconds =       1.05 minutes
	system time =       1.33 seconds =       0.02 minutes
	total time  =         64 seconds =       1.07 minutes
Total time:
	user time   =      63.00 seconds =       1.05 minutes
	system time =       1.33 seconds =       0.02 minutes
	total time  =         64 seconds =       1.07 minutes

  //>>>>>>>>>>>>>>>>>>>>>>>>>>>>>>>>>>>//
  //            Monomer A HF           //
  //<<<<<<<<<<<<<<<<<<<<<<<<<<<<<<<<<<<//


*** tstart() called on r282
*** at Fri Sep 10 21:28:26 2021

   => Loading Basis Set <=

    Name: JUN-CC-PVTZ
    Role: ORBITAL
    Keyword: BASIS
    atoms 1-3, 10, 14, 17, 20             entry C          line   217 file /home/r08543048/miniconda3/share/psi4/basis/jun-cc-pvtz.gbs 
    atoms 4-9, 11-13, 15-16, 18-19, 21-23 entry H          line    36 file /home/r08543048/miniconda3/share/psi4/basis/jun-cc-pvtz.gbs 


         ---------------------------------------------------------
                                   SCF
               by Justin Turney, Rob Parrish, Andy Simmonett
                          and Daniel G. A. Smith
                              RHF Reference
                        1 Threads,  20980 MiB Core
         ---------------------------------------------------------

  ==> Geometry <==

    Molecular point group: c1
    Full point group: C1

    Geometry (in Angstrom), charge = 0, multiplicity = 1:

       Center              X                  Y                   Z               Mass       
    ------------   -----------------  -----------------  -----------------  -----------------
         C            1.639556652181    -1.574936613873    -0.241163441122    12.000000000000
         C            2.083924652181    -0.339375613873    -0.486595841122    12.000000000000
         C            2.562200652181     0.610959386127     0.563400158878    12.000000000000
         H            1.304197652181    -2.222164613873    -1.039480741122     1.007825032230
         H            1.605533652181    -1.964428613873     0.768876858878     1.007825032230
         H            2.104082652181     0.012199386127    -1.513420141122     1.007825032230
         H            1.965194652181     1.524660386127     0.562305658878     1.007825032230
         H            2.501719652181     0.160960386127     1.553747658878     1.007825032230
         H            3.597119652181     0.904603386127     0.381052658878     1.007825032230
      Gh(C)          -0.840335347819     2.083677386127    -0.321772341122    12.000000000000
      Gh(H)          -1.693072347819     2.503144386127    -0.857674341122     1.007825032230
      Gh(H)          -0.078875347819     1.827872386127    -1.060624341122     1.007825032230
      Gh(H)          -0.435606347819     2.863251386127     0.324112658878     1.007825032230
      Gh(C)          -1.252172347819     0.849252386127     0.469685658878    12.000000000000
      Gh(H)          -0.387426347819     0.447441386127     1.004414658878     1.007825032230
      Gh(H)          -1.990741347819     1.123045386127     1.228384658878     1.007825032230
      Gh(C)          -1.829264347819    -0.243146613873    -0.421011341122    12.000000000000
      Gh(H)          -1.099226347819    -0.486556613873    -1.197251341122     1.007825032230
      Gh(H)          -2.716274347819     0.141121386127    -0.932521341122     1.007825032230
      Gh(C)          -2.184206347819    -1.501319613873     0.360262658878    12.000000000000
      Gh(H)          -2.915276347819    -1.281257613873     1.139621658878     1.007825032230
      Gh(H)          -2.604377347819    -2.272546613873    -0.285157341122     1.007825032230
      Gh(H)          -1.296671347819    -1.913378613873     0.842754658878     1.007825032230

  Running in c1 symmetry.

  Rotational constants: A =      0.08555  B =      0.04393  C =      0.03246 [cm^-1]
  Rotational constants: A =   2564.77735  B =   1317.06554  C =    973.23293 [MHz]
  Nuclear repulsion =   70.864935940091186

  Charge       = 0
  Multiplicity = 1
  Electrons    = 24
  Nalpha       = 12
  Nbeta        = 12

  ==> Algorithm <==

  SCF Algorithm Type is DF.
  DIIS enabled.
  MOM disabled.
  Fractional occupation disabled.
  Guess Type is SAD.
  Energy threshold   = 1.00e-08
  Density threshold  = 1.00e-08
  Integral threshold = 0.00e+00

  ==> Primary Basis <==

  Basis Set: JUN-CC-PVTZ
    Blend: JUN-CC-PVTZ
    Number of shells: 187
    Number of basis function: 497
    Number of Cartesian functions: 555
    Spherical Harmonics?: true
    Max angular momentum: 3

   => Loading Basis Set <=

    Name: (JUN-CC-PVTZ AUX)
    Role: JKFIT
    Keyword: DF_BASIS_SCF
    atoms 1-3, 10, 14, 17, 20             entry C          line   152 file /home/r08543048/miniconda3/share/psi4/basis/jun-cc-pvtz-jkfit.gbs 
    atoms 4-9, 11-13, 15-16, 18-19, 21-23 entry H          line    70 file /home/r08543048/miniconda3/share/psi4/basis/jun-cc-pvtz-jkfit.gbs 

  ==> Pre-Iterations <==

   -------------------------------------------------------
    Irrep   Nso     Nmo     Nalpha   Nbeta   Ndocc  Nsocc
   -------------------------------------------------------
     A        497     497       0       0       0       0
   -------------------------------------------------------
    Total     497     497      12      12      12       0
   -------------------------------------------------------

  ==> Integral Setup <==

  ==> DiskDFJK: Density-Fitted J/K Matrices <==

    J tasked:                  Yes
    K tasked:                  Yes
    wK tasked:                  No
    OpenMP threads:              1
    Integrals threads:           1
    Memory [MiB]:            15735
    Algorithm:                Core
    Integral Cache:           LOAD
    Schwarz Cutoff:          1E-12
    Fitting Condition:       1E-10

   => Auxiliary Basis Set <=

  Basis Set: (JUN-CC-PVTZ AUX)
    Blend: JUN-CC-PVTZ-JKFIT
    Number of shells: 363
    Number of basis function: 1145
    Number of Cartesian functions: 1372
    Spherical Harmonics?: true
    Max angular momentum: 4

  Minimum eigenvalue in the overlap matrix is 3.4173240253E-05.
  Using Symmetric Orthogonalization.

  SCF Guess: Superposition of Atomic Densities via on-the-fly atomic UHF.

  ==> Iterations <==

                           Total Energy        Delta E     RMS |[F,P]|

   @DF-RHF iter SAD:  -116.33295089156570   -1.16333e+02   0.00000e+00 
   @DF-RHF iter   1:  -116.98780751505240   -6.54857e-01   9.22582e-04 DIIS
   @DF-RHF iter   2:  -117.09546235582059   -1.07655e-01   3.96231e-04 DIIS
   @DF-RHF iter   3:  -117.11557208953334   -2.01097e-02   7.12395e-05 DIIS
   @DF-RHF iter   4:  -117.11686728463785   -1.29520e-03   2.14994e-05 DIIS
   @DF-RHF iter   5:  -117.11694164337736   -7.43587e-05   5.76568e-06 DIIS
   @DF-RHF iter   6:  -117.11694786784474   -6.22447e-06   1.04077e-06 DIIS
   @DF-RHF iter   7:  -117.11694817745609   -3.09611e-07   3.82953e-07 DIIS
   @DF-RHF iter   8:  -117.11694821851835   -4.10623e-08   1.32633e-07 DIIS
   @DF-RHF iter   9:  -117.11694822441369   -5.89534e-09   4.81565e-08 DIIS
   @DF-RHF iter  10:  -117.11694822535803   -9.44340e-10   1.09177e-08 DIIS
   @DF-RHF iter  11:  -117.11694822540329   -4.52616e-11   1.92671e-09 DIIS
  Energy and wave function converged.


  ==> Post-Iterations <==

    Orbital Energies [Eh]
    ---------------------

    Doubly Occupied:                                                      

       1A    -11.234389     2A    -11.220854     3A    -11.217525  
       4A     -1.064863     5A     -0.932861     6A     -0.758073  
       7A     -0.639886     8A     -0.582639     9A     -0.568641  
      10A     -0.523259    11A     -0.492947    12A     -0.358001  

    Virtual:                                                              

      13A      0.032218    14A      0.043090    15A      0.050738  
      16A      0.058345    17A      0.067645    18A      0.072292  
      19A      0.072550    20A      0.084769    21A      0.087233  
      22A      0.104736    23A      0.105138    24A      0.107975  
      25A      0.112994    26A      0.117359    27A      0.121064  
      28A      0.125757    29A      0.127366    30A      0.142529  
      31A      0.148678    32A      0.152336    33A      0.156099  
      34A      0.156446    35A      0.171613    36A      0.175895  
      37A      0.178592    38A      0.182555    39A      0.186378  
      40A      0.208264    41A      0.212991    42A      0.235869  
      43A      0.259328    44A      0.267621    45A      0.272939  
      46A      0.279197    47A      0.285214    48A      0.289025  
      49A      0.304801    50A      0.307791    51A      0.311378  
      52A      0.318521    53A      0.323599    54A      0.329251  
      55A      0.333271    56A      0.337330    57A      0.351153  
      58A      0.352090    59A      0.357311    60A      0.367748  
      61A      0.369823    62A      0.372729    63A      0.377749  
      64A      0.382884    65A      0.385733    66A      0.387294  
      67A      0.401384    68A      0.407273    69A      0.409424  
      70A      0.417852    71A      0.433197    72A      0.439455  
      73A      0.447741    74A      0.459006    75A      0.469664  
      76A      0.475050    77A      0.485446    78A      0.493335  
      79A      0.496348    80A      0.509362    81A      0.515332  
      82A      0.528943    83A      0.534955    84A      0.537522  
      85A      0.549644    86A      0.553670    87A      0.556795  
      88A      0.573578    89A      0.575573    90A      0.590033  
      91A      0.598147    92A      0.602948    93A      0.608771  
      94A      0.620509    95A      0.622716    96A      0.629817  
      97A      0.634985    98A      0.644294    99A      0.653935  
     100A      0.669492   101A      0.671732   102A      0.682369  
     103A      0.690041   104A      0.703300   105A      0.713415  
     106A      0.716956   107A      0.731196   108A      0.733198  
     109A      0.742849   110A      0.751387   111A      0.762651  
     112A      0.782032   113A      0.793827   114A      0.798841  
     115A      0.814109   116A      0.821090   117A      0.822811  
     118A      0.849469   119A      0.875614   120A      0.889195  
     121A      0.901865   122A      0.905194   123A      0.927486  
     124A      0.948403   125A      0.970972   126A      0.983763  
     127A      0.995126   128A      1.036907   129A      1.041830  
     130A      1.062131   131A      1.076650   132A      1.082811  
     133A      1.098777   134A      1.108613   135A      1.113867  
     136A      1.125869   137A      1.136309   138A      1.146721  
     139A      1.157810   140A      1.164552   141A      1.174307  
     142A      1.193640   143A      1.203704   144A      1.211398  
     145A      1.219131   146A      1.223978   147A      1.234768  
     148A      1.248202   149A      1.254707   150A      1.265550  
     151A      1.272911   152A      1.279398   153A      1.292311  
     154A      1.307675   155A      1.312880   156A      1.317869  
     157A      1.327199   158A      1.342365   159A      1.347221  
     160A      1.356361   161A      1.373984   162A      1.375258  
     163A      1.383038   164A      1.387711   165A      1.394499  
     166A      1.405028   167A      1.421648   168A      1.426618  
     169A      1.432290   170A      1.439908   171A      1.450700  
     172A      1.462093   173A      1.471685   174A      1.481402  
     175A      1.495044   176A      1.512676   177A      1.518195  
     178A      1.531991   179A      1.544168   180A      1.550181  
     181A      1.555584   182A      1.562393   183A      1.574845  
     184A      1.588354   185A      1.594106   186A      1.606836  
     187A      1.611246   188A      1.619750   189A      1.635477  
     190A      1.642500   191A      1.652896   192A      1.668487  
     193A      1.670943   194A      1.697868   195A      1.708851  
     196A      1.724857   197A      1.733213   198A      1.736349  
     199A      1.758095   200A      1.760922   201A      1.775261  
     202A      1.787850   203A      1.802993   204A      1.841815  
     205A      1.847836   206A      1.860358   207A      1.880866  
     208A      1.895526   209A      1.903129   210A      1.927512  
     211A      1.944530   212A      1.973078   213A      1.979623  
     214A      2.007671   215A      2.065653   216A      2.075274  
     217A      2.104975   218A      2.113855   219A      2.118817  
     220A      2.174467   221A      2.180867   222A      2.214733  
     223A      2.239634   224A      2.259899   225A      2.317883  
     226A      2.335720   227A      2.339190   228A      2.397405  
     229A      2.412951   230A      2.433583   231A      2.478572  
     232A      2.492397   233A      2.529524   234A      2.626727  
     235A      2.639115   236A      2.666053   237A      2.672420  
     238A      2.745441   239A      2.755652   240A      2.805157  
     241A      2.812746   242A      2.834851   243A      2.880476  
     244A      2.909907   245A      2.915384   246A      2.948969  
     247A      2.999813   248A      3.049818   249A      3.081076  
     250A      3.090316   251A      3.115485   252A      3.131663  
     253A      3.165007   254A      3.198401   255A      3.208662  
     256A      3.239980   257A      3.253143   258A      3.281884  
     259A      3.310898   260A      3.332308   261A      3.351864  
     262A      3.358425   263A      3.384355   264A      3.399016  
     265A      3.436450   266A      3.439022   267A      3.468187  
     268A      3.490922   269A      3.506010   270A      3.520199  
     271A      3.534203   272A      3.542660   273A      3.555898  
     274A      3.566002   275A      3.568973   276A      3.591547  
     277A      3.594368   278A      3.599050   279A      3.607482  
     280A      3.626081   281A      3.629030   282A      3.635211  
     283A      3.650154   284A      3.670987   285A      3.679790  
     286A      3.689810   287A      3.702865   288A      3.716194  
     289A      3.745049   290A      3.757878   291A      3.786819  
     292A      3.791856   293A      3.799309   294A      3.805177  
     295A      3.811638   296A      3.821094   297A      3.835959  
     298A      3.849722   299A      3.854919   300A      3.865051  
     301A      3.866774   302A      3.891059   303A      3.900740  
     304A      3.904388   305A      3.922587   306A      3.927588  
     307A      3.937601   308A      3.956538   309A      3.976514  
     310A      4.001612   311A      4.010142   312A      4.023089  
     313A      4.047581   314A      4.066574   315A      4.069760  
     316A      4.080059   317A      4.086452   318A      4.109432  
     319A      4.137249   320A      4.152980   321A      4.161173  
     322A      4.176909   323A      4.186342   324A      4.195848  
     325A      4.216874   326A      4.233035   327A      4.262744  
     328A      4.280032   329A      4.296203   330A      4.306177  
     331A      4.315782   332A      4.332698   333A      4.333468  
     334A      4.352551   335A      4.374496   336A      4.378974  
     337A      4.392528   338A      4.393722   339A      4.409808  
     340A      4.421991   341A      4.442987   342A      4.451372  
     343A      4.464494   344A      4.480708   345A      4.493366  
     346A      4.497821   347A      4.506617   348A      4.515570  
     349A      4.518872   350A      4.542609   351A      4.552696  
     352A      4.560569   353A      4.579474   354A      4.587627  
     355A      4.604233   356A      4.608242   357A      4.616720  
     358A      4.617727   359A      4.646062   360A      4.648257  
     361A      4.660782   362A      4.666412   363A      4.686424  
     364A      4.711026   365A      4.715059   366A      4.727646  
     367A      4.744215   368A      4.746494   369A      4.750301  
     370A      4.773610   371A      4.783474   372A      4.788264  
     373A      4.792972   374A      4.809948   375A      4.819378  
     376A      4.837436   377A      4.843151   378A      4.852316  
     379A      4.864323   380A      4.881874   381A      4.890320  
     382A      4.897918   383A      4.902119   384A      4.916184  
     385A      4.918965   386A      4.931554   387A      4.939132  
     388A      4.949231   389A      4.951928   390A      4.958686  
     391A      4.977348   392A      4.983635   393A      4.993378  
     394A      4.999122   395A      5.020776   396A      5.027496  
     397A      5.048193   398A      5.051674   399A      5.072634  
     400A      5.077809   401A      5.091898   402A      5.127109  
     403A      5.162231   404A      5.184645   405A      5.188526  
     406A      5.205171   407A      5.218772   408A      5.231604  
     409A      5.238340   410A      5.263930   411A      5.287551  
     412A      5.309620   413A      5.327281   414A      5.351905  
     415A      5.359067   416A      5.370128   417A      5.388853  
     418A      5.396474   419A      5.455678   420A      5.465414  
     421A      5.479740   422A      5.504330   423A      5.521040  
     424A      5.550186   425A      5.564612   426A      5.572720  
     427A      5.631819   428A      5.642225   429A      5.664822  
     430A      5.684225   431A      5.694508   432A      5.700121  
     433A      5.769084   434A      5.794710   435A      5.802994  
     436A      5.819670   437A      5.828297   438A      5.863054  
     439A      5.922557   440A      5.955854   441A      5.975426  
     442A      6.026785   443A      6.038411   444A      6.070886  
     445A      6.095990   446A      6.111410   447A      6.141516  
     448A      6.266062   449A      6.329406   450A      6.344754  
     451A      6.381720   452A      6.386920   453A      6.400342  
     454A      6.408269   455A      6.433374   456A      6.457569  
     457A      6.478511   458A      6.481036   459A      6.494118  
     460A      6.517904   461A      6.540259   462A      6.563619  
     463A      6.708358   464A      6.749570   465A      6.801837  
     466A      6.822075   467A      6.950672   468A      7.060130  
     469A      7.273319   470A      7.514907   471A      7.543579  
     472A      7.584317   473A      7.591836   474A      7.602870  
     475A      7.671563   476A      7.722533   477A      7.748020  
     478A      7.814030   479A      7.818724   480A      7.849105  
     481A      7.936883   482A      7.947856   483A      8.111829  
     484A      8.291780   485A      8.448170   486A      8.647789  
     487A      9.611129   488A      9.704841   489A      9.897528  
     490A      9.949589   491A     12.344493   492A     14.659629  
     493A     15.389110   494A     43.885670   495A     45.429911  
     496A     45.594005   497A     45.850248  

    Final Occupation by Irrep:
              A 
    DOCC [    12 ]

  @DF-RHF Final Energy:  -117.11694822540329

   => Energetics <=

    Nuclear Repulsion Energy =             70.8649359400911862
    One-Electron Energy =                -296.7758904411805361
    Two-Electron Energy =                 108.7940062756860584
    Total Energy =                       -117.1169482254032914

Computation Completed


Properties will be evaluated at   0.000000,   0.000000,   0.000000 [a0]

Properties computed using the SCF density matrix

  Nuclear Dipole Moment: [e a0]
     X:    95.9829      Y:   -17.7715      Z:    -0.5160

  Electronic Dipole Moment: [e a0]
     X:   -95.9210      Y:    17.9233      Z:     0.5458

  Dipole Moment: [e a0]
     X:     0.0619      Y:     0.1518      Z:     0.0297     Total:     0.1666

  Dipole Moment: [D]
     X:     0.1573      Y:     0.3858      Z:     0.0756     Total:     0.4235


*** tstop() called on r282 at Fri Sep 10 21:29:01 2021
Module time:
	user time   =      33.98 seconds =       0.57 minutes
	system time =       0.57 seconds =       0.01 minutes
	total time  =         35 seconds =       0.58 minutes
Total time:
	user time   =      96.98 seconds =       1.62 minutes
	system time =       1.90 seconds =       0.03 minutes
	total time  =         99 seconds =       1.65 minutes

  //>>>>>>>>>>>>>>>>>>>>>>>>>>>>>>>>>>>//
  //            Monomer B HF           //
  //<<<<<<<<<<<<<<<<<<<<<<<<<<<<<<<<<<<//


*** tstart() called on r282
*** at Fri Sep 10 21:29:01 2021

   => Loading Basis Set <=

    Name: JUN-CC-PVTZ
    Role: ORBITAL
    Keyword: BASIS
    atoms 1-3, 10, 14, 17, 20             entry C          line   217 file /home/r08543048/miniconda3/share/psi4/basis/jun-cc-pvtz.gbs 
    atoms 4-9, 11-13, 15-16, 18-19, 21-23 entry H          line    36 file /home/r08543048/miniconda3/share/psi4/basis/jun-cc-pvtz.gbs 


         ---------------------------------------------------------
                                   SCF
               by Justin Turney, Rob Parrish, Andy Simmonett
                          and Daniel G. A. Smith
                              RHF Reference
                        1 Threads,  20980 MiB Core
         ---------------------------------------------------------

  ==> Geometry <==

    Molecular point group: c1
    Full point group: C1

    Geometry (in Angstrom), charge = 0, multiplicity = 1:

       Center              X                  Y                   Z               Mass       
    ------------   -----------------  -----------------  -----------------  -----------------
      Gh(C)           1.639556652181    -1.574936613873    -0.241163441122    12.000000000000
      Gh(C)           2.083924652181    -0.339375613873    -0.486595841122    12.000000000000
      Gh(C)           2.562200652181     0.610959386127     0.563400158878    12.000000000000
      Gh(H)           1.304197652181    -2.222164613873    -1.039480741122     1.007825032230
      Gh(H)           1.605533652181    -1.964428613873     0.768876858878     1.007825032230
      Gh(H)           2.104082652181     0.012199386127    -1.513420141122     1.007825032230
      Gh(H)           1.965194652181     1.524660386127     0.562305658878     1.007825032230
      Gh(H)           2.501719652181     0.160960386127     1.553747658878     1.007825032230
      Gh(H)           3.597119652181     0.904603386127     0.381052658878     1.007825032230
         C           -0.840335347819     2.083677386127    -0.321772341122    12.000000000000
         H           -1.693072347819     2.503144386127    -0.857674341122     1.007825032230
         H           -0.078875347819     1.827872386127    -1.060624341122     1.007825032230
         H           -0.435606347819     2.863251386127     0.324112658878     1.007825032230
         C           -1.252172347819     0.849252386127     0.469685658878    12.000000000000
         H           -0.387426347819     0.447441386127     1.004414658878     1.007825032230
         H           -1.990741347819     1.123045386127     1.228384658878     1.007825032230
         C           -1.829264347819    -0.243146613873    -0.421011341122    12.000000000000
         H           -1.099226347819    -0.486556613873    -1.197251341122     1.007825032230
         H           -2.716274347819     0.141121386127    -0.932521341122     1.007825032230
         C           -2.184206347819    -1.501319613873     0.360262658878    12.000000000000
         H           -2.915276347819    -1.281257613873     1.139621658878     1.007825032230
         H           -2.604377347819    -2.272546613873    -0.285157341122     1.007825032230
         H           -1.296671347819    -1.913378613873     0.842754658878     1.007825032230

  Running in c1 symmetry.

  Rotational constants: A =      0.08555  B =      0.04393  C =      0.03246 [cm^-1]
  Rotational constants: A =   2564.77735  B =   1317.06554  C =    973.23293 [MHz]
  Nuclear repulsion =  131.157131877514928

  Charge       = 0
  Multiplicity = 1
  Electrons    = 34
  Nalpha       = 17
  Nbeta        = 17

  ==> Algorithm <==

  SCF Algorithm Type is DF.
  DIIS enabled.
  MOM disabled.
  Fractional occupation disabled.
  Guess Type is SAD.
  Energy threshold   = 1.00e-08
  Density threshold  = 1.00e-08
  Integral threshold = 0.00e+00

  ==> Primary Basis <==

  Basis Set: JUN-CC-PVTZ
    Blend: JUN-CC-PVTZ
    Number of shells: 187
    Number of basis function: 497
    Number of Cartesian functions: 555
    Spherical Harmonics?: true
    Max angular momentum: 3

   => Loading Basis Set <=

    Name: (JUN-CC-PVTZ AUX)
    Role: JKFIT
    Keyword: DF_BASIS_SCF
    atoms 1-3, 10, 14, 17, 20             entry C          line   152 file /home/r08543048/miniconda3/share/psi4/basis/jun-cc-pvtz-jkfit.gbs 
    atoms 4-9, 11-13, 15-16, 18-19, 21-23 entry H          line    70 file /home/r08543048/miniconda3/share/psi4/basis/jun-cc-pvtz-jkfit.gbs 

  ==> Pre-Iterations <==

   -------------------------------------------------------
    Irrep   Nso     Nmo     Nalpha   Nbeta   Ndocc  Nsocc
   -------------------------------------------------------
     A        497     497       0       0       0       0
   -------------------------------------------------------
    Total     497     497      17      17      17       0
   -------------------------------------------------------

  ==> Integral Setup <==

  ==> DiskDFJK: Density-Fitted J/K Matrices <==

    J tasked:                  Yes
    K tasked:                  Yes
    wK tasked:                  No
    OpenMP threads:              1
    Integrals threads:           1
    Memory [MiB]:            15735
    Algorithm:                Core
    Integral Cache:           LOAD
    Schwarz Cutoff:          1E-12
    Fitting Condition:       1E-10

   => Auxiliary Basis Set <=

  Basis Set: (JUN-CC-PVTZ AUX)
    Blend: JUN-CC-PVTZ-JKFIT
    Number of shells: 363
    Number of basis function: 1145
    Number of Cartesian functions: 1372
    Spherical Harmonics?: true
    Max angular momentum: 4

  Minimum eigenvalue in the overlap matrix is 3.4173240253E-05.
  Using Symmetric Orthogonalization.

  SCF Guess: Superposition of Atomic Densities via on-the-fly atomic UHF.

  ==> Iterations <==

                           Total Energy        Delta E     RMS |[F,P]|

   @DF-RHF iter SAD:  -156.79933942558810   -1.56799e+02   0.00000e+00 
   @DF-RHF iter   1:  -157.14941807587442   -3.50079e-01   1.16085e-03 DIIS
   @DF-RHF iter   2:  -157.31600951843055   -1.66591e-01   5.39854e-04 DIIS
   @DF-RHF iter   3:  -157.35335086799310   -3.73413e-02   9.50931e-05 DIIS
   @DF-RHF iter   4:  -157.35574578936416   -2.39492e-03   2.21814e-05 DIIS
   @DF-RHF iter   5:  -157.35583748164311   -9.16923e-05   5.73505e-06 DIIS
   @DF-RHF iter   6:  -157.35584514058345   -7.65894e-06   7.18066e-07 DIIS
   @DF-RHF iter   7:  -157.35584532046818   -1.79885e-07   1.26689e-07 DIIS
   @DF-RHF iter   8:  -157.35584532547063   -5.00245e-09   2.84152e-08 DIIS
   @DF-RHF iter   9:  -157.35584532574242   -2.71797e-10   6.55988e-09 DIIS
  Energy and wave function converged.


  ==> Post-Iterations <==

    Orbital Energies [Eh]
    ---------------------

    Doubly Occupied:                                                      

       1A    -11.213232     2A    -11.212603     3A    -11.207569  
       4A    -11.207465     5A     -1.071821     6A     -0.980266  
       7A     -0.859918     8A     -0.787279     9A     -0.639791  
      10A     -0.584054    11A     -0.575698    12A     -0.567080  
      13A     -0.513674    14A     -0.494204    15A     -0.469083  
      16A     -0.462159    17A     -0.455655  

    Virtual:                                                              

      18A      0.035229    19A      0.047161    20A      0.051185  
      21A      0.055428    22A      0.067693    23A      0.073273  
      24A      0.075732    25A      0.085327    26A      0.087008  
      27A      0.104176    28A      0.106939    29A      0.111344  
      30A      0.114014    31A      0.120469    32A      0.122058  
      33A      0.126571    34A      0.133255    35A      0.146004  
      36A      0.148954    37A      0.152080    38A      0.160797  
      39A      0.161753    40A      0.174988    41A      0.178119  
      42A      0.189898    43A      0.202122    44A      0.208674  
      45A      0.214167    46A      0.243743    47A      0.244185  
      48A      0.260315    49A      0.271832    50A      0.275873  
      51A      0.280166    52A      0.292607    53A      0.302099  
      54A      0.307843    55A      0.310580    56A      0.313709  
      57A      0.322445    58A      0.323071    59A      0.331239  
      60A      0.334565    61A      0.337193    62A      0.345040  
      63A      0.349991    64A      0.354658    65A      0.367233  
      66A      0.369930    67A      0.378943    68A      0.380636  
      69A      0.388724    70A      0.394018    71A      0.400497  
      72A      0.403951    73A      0.413243    74A      0.418906  
      75A      0.425095    76A      0.433876    77A      0.440615  
      78A      0.444151    79A      0.446789    80A      0.451501  
      81A      0.476904    82A      0.478297    83A      0.483741  
      84A      0.490044    85A      0.506375    86A      0.517614  
      87A      0.524133    88A      0.531023    89A      0.535915  
      90A      0.545373    91A      0.548931    92A      0.562201  
      93A      0.567377    94A      0.572189    95A      0.583962  
      96A      0.584757    97A      0.589135    98A      0.595720  
      99A      0.609147   100A      0.616340   101A      0.622075  
     102A      0.630870   103A      0.637483   104A      0.652726  
     105A      0.664590   106A      0.668497   107A      0.681313  
     108A      0.701073   109A      0.708257   110A      0.719142  
     111A      0.729060   112A      0.731896   113A      0.757617  
     114A      0.761389   115A      0.778048   116A      0.791358  
     117A      0.804305   118A      0.812870   119A      0.819868  
     120A      0.822363   121A      0.834367   122A      0.838389  
     123A      0.844642   124A      0.854721   125A      0.859658  
     126A      0.871839   127A      0.878275   128A      0.888760  
     129A      0.898661   130A      0.928211   131A      0.944760  
     132A      0.949204   133A      0.957784   134A      0.973644  
     135A      1.004627   136A      1.013044   137A      1.018328  
     138A      1.041400   139A      1.078614   140A      1.082177  
     141A      1.106334   142A      1.108973   143A      1.124997  
     144A      1.137610   145A      1.156791   146A      1.166909  
     147A      1.175931   148A      1.184753   149A      1.193648  
     150A      1.201276   151A      1.219490   152A      1.228041  
     153A      1.232902   154A      1.238230   155A      1.259848  
     156A      1.271574   157A      1.277069   158A      1.304142  
     159A      1.310986   160A      1.312572   161A      1.322916  
     162A      1.329327   163A      1.343582   164A      1.347861  
     165A      1.353447   166A      1.360421   167A      1.383466  
     168A      1.396130   169A      1.405306   170A      1.414786  
     171A      1.424582   172A      1.433467   173A      1.442514  
     174A      1.454385   175A      1.458505   176A      1.472009  
     177A      1.473651   178A      1.478493   179A      1.488445  
     180A      1.503107   181A      1.507498   182A      1.515809  
     183A      1.521055   184A      1.529247   185A      1.541581  
     186A      1.560568   187A      1.567428   188A      1.577049  
     189A      1.585165   190A      1.590419   191A      1.599611  
     192A      1.614808   193A      1.621250   194A      1.621355  
     195A      1.625308   196A      1.636455   197A      1.642628  
     198A      1.653919   199A      1.662464   200A      1.669364  
     201A      1.688586   202A      1.709861   203A      1.721226  
     204A      1.731748   205A      1.737301   206A      1.765472  
     207A      1.776593   208A      1.786781   209A      1.790178  
     210A      1.820129   211A      1.831371   212A      1.840712  
     213A      1.883459   214A      1.893451   215A      1.901421  
     216A      1.912189   217A      1.924905   218A      1.935805  
     219A      1.949982   220A      1.985736   221A      2.008119  
     222A      2.020565   223A      2.035841   224A      2.059067  
     225A      2.061415   226A      2.090294   227A      2.108875  
     228A      2.142385   229A      2.177947   230A      2.241774  
     231A      2.257619   232A      2.353892   233A      2.387450  
     234A      2.453179   235A      2.527770   236A      2.547379  
     237A      2.682972   238A      2.744190   239A      2.759510  
     240A      2.790236   241A      2.825504   242A      2.865456  
     243A      2.877966   244A      2.880349   245A      2.903663  
     246A      2.910287   247A      2.917023   248A      2.938748  
     249A      2.954588   250A      2.993884   251A      3.024039  
     252A      3.049024   253A      3.080198   254A      3.126186  
     255A      3.138384   256A      3.146498   257A      3.150614  
     258A      3.153804   259A      3.170959   260A      3.189003  
     261A      3.238657   262A      3.263018   263A      3.276536  
     264A      3.302391   265A      3.317676   266A      3.333063  
     267A      3.340157   268A      3.359790   269A      3.402239  
     270A      3.408843   271A      3.409810   272A      3.414206  
     273A      3.434225   274A      3.444740   275A      3.452063  
     276A      3.468084   277A      3.479775   278A      3.492169  
     279A      3.496374   280A      3.509122   281A      3.523486  
     282A      3.534336   283A      3.543386   284A      3.557794  
     285A      3.566217   286A      3.576836   287A      3.586932  
     288A      3.591883   289A      3.608364   290A      3.617089  
     291A      3.632145   292A      3.642886   293A      3.648370  
     294A      3.664145   295A      3.671348   296A      3.683724  
     297A      3.691012   298A      3.701053   299A      3.724311  
     300A      3.743242   301A      3.748841   302A      3.765493  
     303A      3.774656   304A      3.793888   305A      3.800460  
     306A      3.813010   307A      3.826569   308A      3.839559  
     309A      3.848278   310A      3.861411   311A      3.886236  
     312A      3.893401   313A      3.897366   314A      3.935477  
     315A      3.943325   316A      3.953295   317A      3.960674  
     318A      3.962728   319A      3.968558   320A      3.977449  
     321A      3.990795   322A      4.006016   323A      4.037971  
     324A      4.048038   325A      4.072971   326A      4.075677  
     327A      4.098011   328A      4.114665   329A      4.128811  
     330A      4.139118   331A      4.154301   332A      4.182176  
     333A      4.193491   334A      4.203797   335A      4.217603  
     336A      4.225134   337A      4.234341   338A      4.245074  
     339A      4.256105   340A      4.267314   341A      4.275466  
     342A      4.288944   343A      4.292640   344A      4.307006  
     345A      4.310672   346A      4.315310   347A      4.338623  
     348A      4.354074   349A      4.371740   350A      4.378583  
     351A      4.388792   352A      4.403484   353A      4.412918  
     354A      4.429414   355A      4.436351   356A      4.447948  
     357A      4.461996   358A      4.470129   359A      4.493406  
     360A      4.503485   361A      4.508654   362A      4.522309  
     363A      4.527310   364A      4.535160   365A      4.541440  
     366A      4.550265   367A      4.557521   368A      4.576147  
     369A      4.582297   370A      4.598748   371A      4.608874  
     372A      4.623086   373A      4.635372   374A      4.641114  
     375A      4.649466   376A      4.655158   377A      4.668356  
     378A      4.677136   379A      4.681728   380A      4.712176  
     381A      4.729572   382A      4.741954   383A      4.748442  
     384A      4.764928   385A      4.792994   386A      4.802697  
     387A      4.814377   388A      4.816923   389A      4.833367  
     390A      4.846127   391A      4.860393   392A      4.862840  
     393A      4.872868   394A      4.897024   395A      4.900835  
     396A      4.913278   397A      4.917547   398A      4.931817  
     399A      4.946110   400A      4.978129   401A      4.985718  
     402A      5.005577   403A      5.020940   404A      5.042421  
     405A      5.051981   406A      5.062580   407A      5.087469  
     408A      5.109558   409A      5.124780   410A      5.130755  
     411A      5.136997   412A      5.159101   413A      5.176022  
     414A      5.187388   415A      5.244806   416A      5.250906  
     417A      5.270104   418A      5.272686   419A      5.298433  
     420A      5.310839   421A      5.319654   422A      5.335046  
     423A      5.359063   424A      5.368355   425A      5.377523  
     426A      5.406512   427A      5.433881   428A      5.452578  
     429A      5.473175   430A      5.504551   431A      5.531407  
     432A      5.535519   433A      5.551402   434A      5.566901  
     435A      5.573024   436A      5.630657   437A      5.660513  
     438A      5.672012   439A      5.680239   440A      5.751852  
     441A      5.758839   442A      5.780925   443A      5.799163  
     444A      5.802062   445A      5.813855   446A      5.844709  
     447A      5.861218   448A      5.907173   449A      5.913814  
     450A      5.921819   451A      5.960331   452A      5.969974  
     453A      5.984215   454A      6.004422   455A      6.014326  
     456A      6.033134   457A      6.086439   458A      6.129980  
     459A      6.150623   460A      6.189806   461A      6.254289  
     462A      6.282084   463A      6.355265   464A      6.387357  
     465A      6.405240   466A      6.495659   467A      6.514664  
     468A      6.553101   469A      6.555528   470A      6.584398  
     471A      6.624251   472A      6.643209   473A      6.724898  
     474A      6.781008   475A      6.856651   476A      7.095567  
     477A      7.392485   478A      7.439820   479A      7.575216  
     480A      7.603823   481A      7.645289   482A      7.817720  
     483A      7.915418   484A      7.981092   485A      8.120160  
     486A      8.305509   487A      8.744533   488A      9.416899  
     489A      9.899070   490A     10.217370   491A     13.763672  
     492A     14.268176   493A     14.555951   494A     14.717407  
     495A     41.073270   496A     45.926504   497A     47.290427  

    Final Occupation by Irrep:
              A 
    DOCC [    17 ]

  @DF-RHF Final Energy:  -157.35584532574242

   => Energetics <=

    Nuclear Repulsion Energy =            131.1571318775149280
    One-Electron Energy =                -470.4228491569068638
    Two-Electron Energy =                 181.9098719536495139
    Total Energy =                       -157.3558453257424219

Computation Completed


Properties will be evaluated at   0.000000,   0.000000,   0.000000 [a0]

Properties computed using the SCF density matrix

  Nuclear Dipole Moment: [e a0]
     X:   -97.9888      Y:    19.0540      Z:     1.3777

  Electronic Dipole Moment: [e a0]
     X:    97.9878      Y:   -19.0539      Z:    -1.3779

  Dipole Moment: [e a0]
     X:    -0.0009      Y:     0.0000      Z:    -0.0002     Total:     0.0009

  Dipole Moment: [D]
     X:    -0.0023      Y:     0.0001      Z:    -0.0004     Total:     0.0024


*** tstop() called on r282 at Fri Sep 10 21:29:32 2021
Module time:
	user time   =      30.24 seconds =       0.50 minutes
	system time =       0.58 seconds =       0.01 minutes
	total time  =         31 seconds =       0.52 minutes
Total time:
	user time   =     127.22 seconds =       2.12 minutes
	system time =       2.49 seconds =       0.04 minutes
	total time  =        130 seconds =       2.17 minutes
  Constructing Basis Sets for SAPT...

   => Loading Basis Set <=

    Name: (JUN-CC-PVTZ AUX)
    Role: RIFIT
    Keyword: DF_BASIS_SAPT
    atoms 1-3, 10, 14, 17, 20             entry C          line   132 file /home/r08543048/miniconda3/share/psi4/basis/jun-cc-pvtz-ri.gbs 
    atoms 4-9, 11-13, 15-16, 18-19, 21-23 entry H          line    30 file /home/r08543048/miniconda3/share/psi4/basis/jun-cc-pvtz-ri.gbs 


  //>>>>>>>>>>>>>>>>>>>>>>>>>>>>>>>>>>>//
  //               SAPT0               //
  //<<<<<<<<<<<<<<<<<<<<<<<<<<<<<<<<<<<//


*** tstart() called on r282
*** at Fri Sep 10 21:29:32 2021

        SAPT0  
    Ed Hohenstein
     6 June 2009

      Orbital Information
  --------------------------
    NSO        =       497
    NMO        =       497
    NRI        =      1159
    NOCC A     =        12
    NOCC B     =        17
    FOCC A     =         0
    FOCC B     =         0
    NVIR A     =       485
    NVIR B     =       480

    Elst10,r            =    -0.002717551565 [Eh]
    Exch10              =     0.007053670087 [Eh]
    Exch10 (S^2)        =     0.007028716771 [Eh]

    Iter     Energy [mEh]          dE [mEh]         Residual      Time [s]
       1      -1.15507264       1.155072643       4.590082195             1
       2      -1.48570478       0.330632141       1.058634165             2
       3      -1.48396991      -0.001734871       0.421038551             3
       4      -1.47874758      -0.005222337       0.093020709             4
       5      -1.47922221       0.000474635       0.033479738             5
       6      -1.47948802       0.000265806       0.008056921             5
       7      -1.47947739      -0.000010628       0.003479867             6
       8      -1.47945284      -0.000024554       0.000935458             7
       9      -1.47945913       0.000006296       0.000235179             8
      10      -1.47945943       0.000000299       0.000074594             9
      11      -1.47945903      -0.000000403       0.000016888            10
      12      -1.47945907       0.000000039       0.000003845            11
      13      -1.47945908       0.000000011       0.000000916            11

    CHF Iterations converged


    Iter     Energy [mEh]          dE [mEh]         Residual      Time [s]
       1      -0.48465339       0.484653388       3.439420486             1
       2      -0.53718866       0.052535269       1.189024582             2
       3      -0.55980862       0.022619962       0.217192563             3
       4      -0.55953790      -0.000270717       0.069976792             4
       5      -0.55882567      -0.000712230       0.013181259             5
       6      -0.55891444       0.000088765       0.003175982             6
       7      -0.55892293       0.000008490       0.000801592             7
       8      -0.55892004      -0.000002882       0.000217467             8
       9      -0.55891952      -0.000000524       0.000044502             9
      10      -0.55891973       0.000000210       0.000009390            10
      11      -0.55891973      -0.000000001       0.000002743            11
      12      -0.55891972      -0.000000007       0.000000751            12

    CHF Iterations converged

    Ind20,r (A<-B)      =    -0.001479459076 [Eh]
    Ind20,r (B<-A)      =    -0.000558919722 [Eh]
    Ind20,r             =    -0.002038378798 [Eh]
    Exch-Ind20,r (A<-B) =     0.001467719041 [Eh]
    Exch-Ind20,r (B<-A) =     0.000430498032 [Eh]
    Exch-Ind20,r        =     0.001898217073 [Eh]
    Disp20              =    -0.008782430127 [Eh]
    Disp20 (SS)         =    -0.004391215063 [Eh]
    Disp20 (OS)         =    -0.004391215063 [Eh]
    Exch-Disp20         =     0.000942510097 [Eh]
    Exch-Disp20 (SS)    =     0.000607370541 [Eh]
    Exch-Disp20 (OS)    =     0.000335139556 [Eh]

    SAPT Results 
  --------------------------------------------------------------------------------------------------------
    Electrostatics                 -2.71755156 [mEh]      -1.70528935 [kcal/mol]      -7.13493065 [kJ/mol]
      Elst10,r                     -2.71755156 [mEh]      -1.70528935 [kcal/mol]      -7.13493065 [kJ/mol]

    Exchange                        7.05367009 [mEh]       4.42624480 [kcal/mol]      18.51940826 [kJ/mol]
      Exch10                        7.05367009 [mEh]       4.42624480 [kcal/mol]      18.51940826 [kJ/mol]
      Exch10(S^2)                   7.02871677 [mEh]       4.41058636 [kcal/mol]      18.45389334 [kJ/mol]

    Induction                      -0.69831171 [mEh]      -0.43819722 [kcal/mol]      -1.83341715 [kJ/mol]
      Ind20,r                      -2.03837880 [mEh]      -1.27910201 [kcal/mol]      -5.35176280 [kJ/mol]
      Exch-Ind20,r                  1.89821707 [mEh]       1.19114920 [kcal/mol]       4.98376824 [kJ/mol]
      delta HF,r (2)               -0.55814999 [mEh]      -0.35024441 [kcal/mol]      -1.46542259 [kJ/mol]

    Dispersion                     -7.83992003 [mEh]      -4.91962409 [kcal/mol]     -20.58370720 [kJ/mol]
      Disp20                       -8.78243013 [mEh]      -5.51105811 [kcal/mol]     -23.05826712 [kJ/mol]
      Exch-Disp20                   0.94251010 [mEh]       0.59143401 [kcal/mol]       2.47455992 [kJ/mol]
      Disp20 (SS)                  -4.39121506 [mEh]      -2.75552905 [kcal/mol]     -11.52913356 [kJ/mol]
      Disp20 (OS)                  -4.39121506 [mEh]      -2.75552905 [kcal/mol]     -11.52913356 [kJ/mol]
      Exch-Disp20 (SS)              0.60737054 [mEh]       0.38113077 [kcal/mol]       1.59465114 [kJ/mol]
      Exch-Disp20 (OS)              0.33513956 [mEh]       0.21030325 [kcal/mol]       0.87990878 [kJ/mol]

  Total HF                          3.63780681 [mEh]       2.28275824 [kcal/mol]       9.55106046 [kJ/mol]
  Total SAPT0                      -4.20211322 [mEh]      -2.63686586 [kcal/mol]     -11.03264674 [kJ/mol]

  Special recipe for scaled SAPT0 (see Manual):
    Electrostatics sSAPT0          -2.71755156 [mEh]      -1.70528935 [kcal/mol]      -7.13493065 [kJ/mol]
    Exchange sSAPT0                 7.05367009 [mEh]       4.42624480 [kcal/mol]      18.51940826 [kJ/mol]
    Induction sSAPT0               -0.67802273 [mEh]      -0.42546569 [kcal/mol]      -1.78014844 [kJ/mol]
    Dispersion sSAPT0              -7.82984607 [mEh]      -4.91330258 [kcal/mol]     -20.55725801 [kJ/mol]
  Total sSAPT0                     -4.17175027 [mEh]      -2.61781282 [kcal/mol]     -10.95292884 [kJ/mol]
  --------------------------------------------------------------------------------------------------------

*** tstop() called on r282 at Fri Sep 10 21:31:21 2021
Module time:
	user time   =      94.03 seconds =       1.57 minutes
	system time =      15.42 seconds =       0.26 minutes
	total time  =        109 seconds =       1.82 minutes
Total time:
	user time   =     221.40 seconds =       3.69 minutes
	system time =      17.91 seconds =       0.30 minutes
	total time  =        239 seconds =       3.98 minutes

    Psi4 stopped on: Friday, 10 September 2021 09:31PM
    Psi4 wall time for execution: 0:03:59.60

*** Psi4 exiting successfully. Buy a developer a beer!
