
    -----------------------------------------------------------------------
          Psi4: An Open-Source Ab Initio Electronic Structure Package
                               Psi4 1.3.2 release

                         Git: Rev {HEAD} ecbda83 


    R. M. Parrish, L. A. Burns, D. G. A. Smith, A. C. Simmonett,
    A. E. DePrince III, E. G. Hohenstein, U. Bozkaya, A. Yu. Sokolov,
    R. Di Remigio, R. M. Richard, J. F. Gonthier, A. M. James,
    H. R. McAlexander, A. Kumar, M. Saitow, X. Wang, B. P. Pritchard,
    P. Verma, H. F. Schaefer III, K. Patkowski, R. A. King, E. F. Valeev,
    F. A. Evangelista, J. M. Turney, T. D. Crawford, and C. D. Sherrill,
    J. Chem. Theory Comput. 13(7) pp 3185--3197 (2017).
    (doi: 10.1021/acs.jctc.7b00174)


                         Additional Contributions by
    P. Kraus, H. Kruse, M. H. Lechner, M. C. Schieber, R. A. Shaw,
    A. Alenaizan, R. Galvelis, Z. L. Glick, S. Lehtola, and J. P. Misiewicz

    -----------------------------------------------------------------------


    Psi4 started on: Friday, 10 September 2021 09:21PM

    Process ID: 57130
    Host:       r282
    PSIDATADIR: /home/r08543048/miniconda3/share/psi4
    Memory:     500.0 MiB
    Threads:    1
    
  ==> Input File <==

--------------------------------------------------------------------------
# Any line starting with the # character is a comment line
#! Sample  computation

memory 22 gb

molecule Dimer {
0 1
 C -1.208308    1.823952    0.075352
 C -1.809815    0.647537   -0.122542
 C -1.429592   -0.628117    0.559215
 C -1.004699   -1.701598   -0.443486
 H -1.518158    2.712599   -0.456664
 H -0.391762    1.919675    0.780501
 H -2.623448    0.588694   -0.840614
 H -0.622541   -0.432702    1.267935
 H -2.281214   -0.998312    1.136405
 H -1.809256   -1.909741   -1.149589
 H -0.135772   -1.373759   -1.013592
 H -0.751855   -2.633565    0.061752









 --
0 1
 C 2.410114   -0.225820    0.690121
 C 2.350404    0.367605   -0.712621
 H 3.427159   -0.513449    0.954515
 H 1.784325   -1.114424    0.769495
 H 2.065509    0.490032    1.436304
 H 2.683762   -0.353406   -1.458553
 H 2.988847    1.246711   -0.794485
 H 1.335781    0.670291   -0.969643


units angstrom

no_reorient
symmetry c1
}

set globals{
  basis jun-cc-pvtz
}

energy('sapt0')


--------------------------------------------------------------------------

  Memory set to  20.489 GiB by Python driver.

  //>>>>>>>>>>>>>>>>>>>>>>>>>>>>>>>>>>>//
  //              Dimer HF             //
  //<<<<<<<<<<<<<<<<<<<<<<<<<<<<<<<<<<<//


*** tstart() called on r282
*** at Fri Sep 10 21:21:11 2021

   => Loading Basis Set <=

    Name: JUN-CC-PVTZ
    Role: ORBITAL
    Keyword: BASIS
    atoms 1-4, 13-14  entry C          line   217 file /home/r08543048/miniconda3/share/psi4/basis/jun-cc-pvtz.gbs 
    atoms 5-12, 15-20 entry H          line    36 file /home/r08543048/miniconda3/share/psi4/basis/jun-cc-pvtz.gbs 


         ---------------------------------------------------------
                                   SCF
               by Justin Turney, Rob Parrish, Andy Simmonett
                          and Daniel G. A. Smith
                              RHF Reference
                        1 Threads,  20980 MiB Core
         ---------------------------------------------------------

  ==> Geometry <==

    Molecular point group: c1
    Full point group: C1

    Geometry (in Angstrom), charge = 0, multiplicity = 1:

       Center              X                  Y                   Z               Mass       
    ------------   -----------------  -----------------  -----------------  -----------------
         C           -1.160474858152     1.804348613086     0.072169153656    12.000000000000
         C           -1.761981858152     0.627933613086    -0.125724846344    12.000000000000
         C           -1.381758858152    -0.647720386914     0.556032153656    12.000000000000
         C           -0.956865858152    -1.721201386914    -0.446668846344    12.000000000000
         H           -1.470324858152     2.692995613086    -0.459846846344     1.007825032230
         H           -0.343928858152     1.900071613086     0.777318153656     1.007825032230
         H           -2.575614858152     0.569090613086    -0.843796846344     1.007825032230
         H           -0.574707858152    -0.452305386914     1.264752153656     1.007825032230
         H           -2.233380858152    -1.017915386914     1.133222153656     1.007825032230
         H           -1.761422858152    -1.929344386914    -1.152771846344     1.007825032230
         H           -0.087938858152    -1.393362386914    -1.016774846344     1.007825032230
         H           -0.704021858152    -2.653168386914     0.058569153656     1.007825032230
         C            2.457947141848    -0.245423386914     0.686938153656    12.000000000000
         C            2.398237141848     0.348001613086    -0.715803846344    12.000000000000
         H            3.474992141848    -0.533052386914     0.951332153656     1.007825032230
         H            1.832158141848    -1.134027386914     0.766312153656     1.007825032230
         H            2.113342141848     0.470428613086     1.433121153656     1.007825032230
         H            2.731595141848    -0.373009386914    -1.461735846344     1.007825032230
         H            3.036680141848     1.227107613086    -0.797667846344     1.007825032230
         H            1.383614141848     0.650687613086    -0.972825846344     1.007825032230

  Running in c1 symmetry.

  Rotational constants: A =      0.11386  B =      0.05302  C =      0.04200 [cm^-1]
  Rotational constants: A =   3413.54929  B =   1589.41998  C =   1259.06927 [MHz]
  Nuclear repulsion =  234.435116360860292

  Charge       = 0
  Multiplicity = 1
  Electrons    = 50
  Nalpha       = 25
  Nbeta        = 25

  ==> Algorithm <==

  SCF Algorithm Type is DF.
  DIIS enabled.
  MOM disabled.
  Fractional occupation disabled.
  Guess Type is SAD.
  Energy threshold   = 1.00e-08
  Density threshold  = 1.00e-08
  Integral threshold = 0.00e+00

  ==> Primary Basis <==

  Basis Set: JUN-CC-PVTZ
    Blend: JUN-CC-PVTZ
    Number of shells: 162
    Number of basis function: 430
    Number of Cartesian functions: 480
    Spherical Harmonics?: true
    Max angular momentum: 3

   => Loading Basis Set <=

    Name: (JUN-CC-PVTZ AUX)
    Role: JKFIT
    Keyword: DF_BASIS_SCF
    atoms 1-4, 13-14  entry C          line   152 file /home/r08543048/miniconda3/share/psi4/basis/jun-cc-pvtz-jkfit.gbs 
    atoms 5-12, 15-20 entry H          line    70 file /home/r08543048/miniconda3/share/psi4/basis/jun-cc-pvtz-jkfit.gbs 

  ==> Pre-Iterations <==

   -------------------------------------------------------
    Irrep   Nso     Nmo     Nalpha   Nbeta   Ndocc  Nsocc
   -------------------------------------------------------
     A        430     430       0       0       0       0
   -------------------------------------------------------
    Total     430     430      25      25      25       0
   -------------------------------------------------------

  ==> Integral Setup <==

  ==> DiskDFJK: Density-Fitted J/K Matrices <==

    J tasked:                  Yes
    K tasked:                  Yes
    wK tasked:                  No
    OpenMP threads:              1
    Integrals threads:           1
    Memory [MiB]:            15735
    Algorithm:                Core
    Integral Cache:           SAVE
    Schwarz Cutoff:          1E-12
    Fitting Condition:       1E-10

   => Auxiliary Basis Set <=

  Basis Set: (JUN-CC-PVTZ AUX)
    Blend: JUN-CC-PVTZ-JKFIT
    Number of shells: 314
    Number of basis function: 990
    Number of Cartesian functions: 1186
    Spherical Harmonics?: true
    Max angular momentum: 4

  Minimum eigenvalue in the overlap matrix is 3.6488398334E-05.
  Using Symmetric Orthogonalization.

  SCF Guess: Superposition of Atomic Densities via on-the-fly atomic UHF.

  ==> Iterations <==

                           Total Energy        Delta E     RMS |[F,P]|

   @DF-RHF iter SAD:  -234.16745985792386   -2.34167e+02   0.00000e+00 
   @DF-RHF iter   1:  -235.14253009623752   -9.75070e-01   1.56913e-03 DIIS
   @DF-RHF iter   2:  -235.37155225925500   -2.29022e-01   7.01842e-04 DIIS
   @DF-RHF iter   3:  -235.41867632248830   -4.71241e-02   1.30093e-04 DIIS
   @DF-RHF iter   4:  -235.42181385540050   -3.13753e-03   4.13288e-05 DIIS
   @DF-RHF iter   5:  -235.42201782804011   -2.03973e-04   1.04163e-05 DIIS
   @DF-RHF iter   6:  -235.42203403548965   -1.62074e-05   1.94507e-06 DIIS
   @DF-RHF iter   7:  -235.42203476060192   -7.25112e-07   4.82745e-07 DIIS
   @DF-RHF iter   8:  -235.42203480698026   -4.63783e-08   1.35973e-07 DIIS
   @DF-RHF iter   9:  -235.42203481140126   -4.42100e-09   6.00035e-08 DIIS
   @DF-RHF iter  10:  -235.42203481236606   -9.64803e-10   2.09127e-08 DIIS
   @DF-RHF iter  11:  -235.42203481249251   -1.26448e-10   4.84917e-09 DIIS
  Energy and wave function converged.


  ==> Post-Iterations <==

    Orbital Energies [Eh]
    ---------------------

    Doubly Occupied:                                                      

       1A    -11.231348     2A    -11.224358     3A    -11.217692  
       4A    -11.214389     5A    -11.210038     6A    -11.207002  
       7A     -1.081439     8A     -1.017473     9A     -0.988603  
      10A     -0.856294    11A     -0.840555    12A     -0.756190  
      13A     -0.644851    14A     -0.608332    15A     -0.599097  
      16A     -0.595677    17A     -0.581750    18A     -0.535305  
      19A     -0.517633    20A     -0.508494    21A     -0.490771  
      22A     -0.485773    23A     -0.481778    24A     -0.476721  
      25A     -0.357476  

    Virtual:                                                              

      26A      0.052516    27A      0.054556    28A      0.054910  
      29A      0.061575    30A      0.073361    31A      0.074564  
      32A      0.089234    33A      0.092795    34A      0.098693  
      35A      0.113520    36A      0.115160    37A      0.119863  
      38A      0.123176    39A      0.126987    40A      0.130295  
      41A      0.133824    42A      0.155551    43A      0.158905  
      44A      0.161559    45A      0.180234    46A      0.188448  
      47A      0.198236    48A      0.204105    49A      0.219961  
      50A      0.221810    51A      0.246968    52A      0.260550  
      53A      0.267783    54A      0.276660    55A      0.285193  
      56A      0.289420    57A      0.294797    58A      0.302670  
      59A      0.309487    60A      0.316950    61A      0.319546  
      62A      0.323291    63A      0.331520    64A      0.339704  
      65A      0.344925    66A      0.347822    67A      0.355202  
      68A      0.356849    69A      0.365535    70A      0.368660  
      71A      0.375411    72A      0.379346    73A      0.390725  
      74A      0.399019    75A      0.403894    76A      0.418432  
      77A      0.423973    78A      0.432558    79A      0.434893  
      80A      0.445391    81A      0.451053    82A      0.467797  
      83A      0.475242    84A      0.484686    85A      0.502290  
      86A      0.505415    87A      0.517166    88A      0.526596  
      89A      0.529622    90A      0.541209    91A      0.542885  
      92A      0.552288    93A      0.553536    94A      0.564462  
      95A      0.576230    96A      0.582807    97A      0.605308  
      98A      0.643977    99A      0.658433   100A      0.664926  
     101A      0.677639   102A      0.698223   103A      0.708450  
     104A      0.722155   105A      0.735712   106A      0.737980  
     107A      0.741594   108A      0.753776   109A      0.763751  
     110A      0.768388   111A      0.773588   112A      0.783359  
     113A      0.791995   114A      0.801910   115A      0.808439  
     116A      0.814424   117A      0.829293   118A      0.835483  
     119A      0.840763   120A      0.852346   121A      0.860507  
     122A      0.870531   123A      0.888458   124A      0.894415  
     125A      0.894740   126A      0.898019   127A      0.912409  
     128A      0.934704   129A      0.958430   130A      0.967666  
     131A      0.968325   132A      0.979554   133A      0.992595  
     134A      1.015827   135A      1.021638   136A      1.032706  
     137A      1.045865   138A      1.054090   139A      1.059843  
     140A      1.086091   141A      1.092139   142A      1.105866  
     143A      1.148166   144A      1.153930   145A      1.160435  
     146A      1.195850   147A      1.206496   148A      1.223193  
     149A      1.253640   150A      1.266122   151A      1.279611  
     152A      1.290396   153A      1.295888   154A      1.319958  
     155A      1.325111   156A      1.329387   157A      1.340376  
     158A      1.364965   159A      1.379921   160A      1.384431  
     161A      1.398240   162A      1.400723   163A      1.414508  
     164A      1.426180   165A      1.436949   166A      1.444238  
     167A      1.464614   168A      1.474958   169A      1.489398  
     170A      1.494103   171A      1.505986   172A      1.516214  
     173A      1.539172   174A      1.546777   175A      1.567594  
     176A      1.577557   177A      1.586699   178A      1.598748  
     179A      1.609675   180A      1.619158   181A      1.638535  
     182A      1.641600   183A      1.650945   184A      1.673552  
     185A      1.687509   186A      1.692768   187A      1.705630  
     188A      1.716936   189A      1.730321   190A      1.769594  
     191A      1.773277   192A      1.776286   193A      1.788988  
     194A      1.806315   195A      1.820124   196A      1.840406  
     197A      1.854969   198A      1.889167   199A      1.913415  
     200A      1.919159   201A      1.940156   202A      1.955368  
     203A      1.962571   204A      2.003194   205A      2.019465  
     206A      2.080524   207A      2.115962   208A      2.260903  
     209A      2.657735   210A      2.708470   211A      2.728298  
     212A      2.740218   213A      2.756358   214A      2.769733  
     215A      2.787225   216A      2.802254   217A      2.814714  
     218A      2.823026   219A      2.829310   220A      2.855304  
     221A      2.862894   222A      2.869399   223A      2.891847  
     224A      2.904940   225A      2.925863   226A      2.946712  
     227A      2.964467   228A      2.977028   229A      2.981869  
     230A      2.993897   231A      3.053811   232A      3.072728  
     233A      3.081628   234A      3.085704   235A      3.097893  
     236A      3.116268   237A      3.118170   238A      3.142454  
     239A      3.158734   240A      3.161619   241A      3.181401  
     242A      3.197149   243A      3.201600   244A      3.208526  
     245A      3.222791   246A      3.228794   247A      3.235319  
     248A      3.261001   249A      3.268638   250A      3.290418  
     251A      3.293803   252A      3.300928   253A      3.317075  
     254A      3.329495   255A      3.337968   256A      3.349410  
     257A      3.362029   258A      3.369509   259A      3.394486  
     260A      3.397616   261A      3.413954   262A      3.431879  
     263A      3.437256   264A      3.448080   265A      3.455195  
     266A      3.474154   267A      3.484159   268A      3.492427  
     269A      3.496708   270A      3.501216   271A      3.507316  
     272A      3.513198   273A      3.534403   274A      3.537334  
     275A      3.561037   276A      3.566048   277A      3.579913  
     278A      3.584182   279A      3.598096   280A      3.598807  
     281A      3.630418   282A      3.643730   283A      3.668195  
     284A      3.687837   285A      3.693054   286A      3.720938  
     287A      3.735797   288A      3.748756   289A      3.761138  
     290A      3.788752   291A      3.806601   292A      3.811538  
     293A      3.831112   294A      3.845663   295A      3.863952  
     296A      3.866403   297A      3.867729   298A      3.880300  
     299A      3.890279   300A      3.900393   301A      3.911598  
     302A      3.937692   303A      3.951507   304A      3.974776  
     305A      3.992249   306A      4.005118   307A      4.018439  
     308A      4.037801   309A      4.064712   310A      4.098887  
     311A      4.128048   312A      4.165144   313A      4.175817  
     314A      4.181900   315A      4.188720   316A      4.200818  
     317A      4.206583   318A      4.215126   319A      4.237740  
     320A      4.241211   321A      4.253869   322A      4.274858  
     323A      4.284169   324A      4.289542   325A      4.294744  
     326A      4.332051   327A      4.337555   328A      4.351458  
     329A      4.358852   330A      4.379328   331A      4.393595  
     332A      4.413558   333A      4.422362   334A      4.431035  
     335A      4.441295   336A      4.446888   337A      4.458903  
     338A      4.461761   339A      4.484272   340A      4.497643  
     341A      4.503413   342A      4.509621   343A      4.519734  
     344A      4.527970   345A      4.545037   346A      4.549596  
     347A      4.561753   348A      4.579047   349A      4.632426  
     350A      4.656223   351A      4.657246   352A      4.682283  
     353A      4.697846   354A      4.712612   355A      4.730280  
     356A      4.744343   357A      4.772145   358A      4.781221  
     359A      4.802318   360A      4.818653   361A      4.827955  
     362A      4.832782   363A      4.861060   364A      4.913158  
     365A      4.945765   366A      4.953576   367A      4.966954  
     368A      4.999047   369A      5.069397   370A      5.100519  
     371A      5.180561   372A      5.200092   373A      5.211071  
     374A      5.221483   375A      5.224739   376A      5.236781  
     377A      5.250182   378A      5.275341   379A      5.287873  
     380A      5.291257   381A      5.309715   382A      5.315789  
     383A      5.319274   384A      5.327515   385A      5.352191  
     386A      5.362397   387A      5.376241   388A      5.412793  
     389A      5.415236   390A      5.441200   391A      5.505603  
     392A      5.575415   393A      5.610808   394A      5.663831  
     395A      5.693281   396A      5.705349   397A      5.721741  
     398A      5.739704   399A      5.755155   400A      5.759033  
     401A      5.771360   402A      5.776869   403A      5.786540  
     404A      5.799009   405A      5.818825   406A      5.840054  
     407A      5.903851   408A      5.907387   409A      5.919678  
     410A      5.926988   411A      5.936369   412A      5.958709  
     413A      6.018446   414A      6.168252   415A      6.400038  
     416A      6.455332   417A      6.469136   418A      6.479401  
     419A      6.498036   420A      6.501117   421A      6.520744  
     422A      6.559995   423A      6.608105   424A      6.711016  
     425A     12.210920   426A     13.964229   427A     14.281280  
     428A     14.549939   429A     14.750578   430A     15.325196  

    Final Occupation by Irrep:
              A 
    DOCC [    25 ]

  @DF-RHF Final Energy:  -235.42203481249251

   => Energetics <=

    Nuclear Repulsion Energy =            234.4351163608602917
    One-Electron Energy =                -780.2562158098561440
    Two-Electron Energy =                 310.3990646365033399
    Total Energy =                       -235.4220348124924840

Computation Completed


Properties will be evaluated at   0.000000,   0.000000,   0.000000 [a0]

Properties computed using the SCF density matrix

  Nuclear Dipole Moment: [e a0]
     X:     4.5196      Y:    -1.8523      Z:    -0.3007

  Electronic Dipole Moment: [e a0]
     X:    -4.5491      Y:     1.6981      Z:     0.3038

  Dipole Moment: [e a0]
     X:    -0.0296      Y:    -0.1542      Z:     0.0030     Total:     0.1570

  Dipole Moment: [D]
     X:    -0.0751      Y:    -0.3919      Z:     0.0077     Total:     0.3991


*** tstop() called on r282 at Fri Sep 10 21:21:45 2021
Module time:
	user time   =      33.94 seconds =       0.57 minutes
	system time =       0.90 seconds =       0.01 minutes
	total time  =         34 seconds =       0.57 minutes
Total time:
	user time   =      33.94 seconds =       0.57 minutes
	system time =       0.90 seconds =       0.01 minutes
	total time  =         34 seconds =       0.57 minutes

  //>>>>>>>>>>>>>>>>>>>>>>>>>>>>>>>>>>>//
  //            Monomer A HF           //
  //<<<<<<<<<<<<<<<<<<<<<<<<<<<<<<<<<<<//


*** tstart() called on r282
*** at Fri Sep 10 21:21:45 2021

   => Loading Basis Set <=

    Name: JUN-CC-PVTZ
    Role: ORBITAL
    Keyword: BASIS
    atoms 1-4, 13-14  entry C          line   217 file /home/r08543048/miniconda3/share/psi4/basis/jun-cc-pvtz.gbs 
    atoms 5-12, 15-20 entry H          line    36 file /home/r08543048/miniconda3/share/psi4/basis/jun-cc-pvtz.gbs 


         ---------------------------------------------------------
                                   SCF
               by Justin Turney, Rob Parrish, Andy Simmonett
                          and Daniel G. A. Smith
                              RHF Reference
                        1 Threads,  20980 MiB Core
         ---------------------------------------------------------

  ==> Geometry <==

    Molecular point group: c1
    Full point group: C1

    Geometry (in Angstrom), charge = 0, multiplicity = 1:

       Center              X                  Y                   Z               Mass       
    ------------   -----------------  -----------------  -----------------  -----------------
         C           -1.160474858152     1.804348613086     0.072169153656    12.000000000000
         C           -1.761981858152     0.627933613086    -0.125724846344    12.000000000000
         C           -1.381758858152    -0.647720386914     0.556032153656    12.000000000000
         C           -0.956865858152    -1.721201386914    -0.446668846344    12.000000000000
         H           -1.470324858152     2.692995613086    -0.459846846344     1.007825032230
         H           -0.343928858152     1.900071613086     0.777318153656     1.007825032230
         H           -2.575614858152     0.569090613086    -0.843796846344     1.007825032230
         H           -0.574707858152    -0.452305386914     1.264752153656     1.007825032230
         H           -2.233380858152    -1.017915386914     1.133222153656     1.007825032230
         H           -1.761422858152    -1.929344386914    -1.152771846344     1.007825032230
         H           -0.087938858152    -1.393362386914    -1.016774846344     1.007825032230
         H           -0.704021858152    -2.653168386914     0.058569153656     1.007825032230
      Gh(C)           2.457947141848    -0.245423386914     0.686938153656    12.000000000000
      Gh(C)           2.398237141848     0.348001613086    -0.715803846344    12.000000000000
      Gh(H)           3.474992141848    -0.533052386914     0.951332153656     1.007825032230
      Gh(H)           1.832158141848    -1.134027386914     0.766312153656     1.007825032230
      Gh(H)           2.113342141848     0.470428613086     1.433121153656     1.007825032230
      Gh(H)           2.731595141848    -0.373009386914    -1.461735846344     1.007825032230
      Gh(H)           3.036680141848     1.227107613086    -0.797667846344     1.007825032230
      Gh(H)           1.383614141848     0.650687613086    -0.972825846344     1.007825032230

  Running in c1 symmetry.

  Rotational constants: A =      0.11386  B =      0.05302  C =      0.04200 [cm^-1]
  Rotational constants: A =   3413.54929  B =   1589.41998  C =   1259.06927 [MHz]
  Nuclear repulsion =  117.461246715997660

  Charge       = 0
  Multiplicity = 1
  Electrons    = 32
  Nalpha       = 16
  Nbeta        = 16

  ==> Algorithm <==

  SCF Algorithm Type is DF.
  DIIS enabled.
  MOM disabled.
  Fractional occupation disabled.
  Guess Type is SAD.
  Energy threshold   = 1.00e-08
  Density threshold  = 1.00e-08
  Integral threshold = 0.00e+00

  ==> Primary Basis <==

  Basis Set: JUN-CC-PVTZ
    Blend: JUN-CC-PVTZ
    Number of shells: 162
    Number of basis function: 430
    Number of Cartesian functions: 480
    Spherical Harmonics?: true
    Max angular momentum: 3

   => Loading Basis Set <=

    Name: (JUN-CC-PVTZ AUX)
    Role: JKFIT
    Keyword: DF_BASIS_SCF
    atoms 1-4, 13-14  entry C          line   152 file /home/r08543048/miniconda3/share/psi4/basis/jun-cc-pvtz-jkfit.gbs 
    atoms 5-12, 15-20 entry H          line    70 file /home/r08543048/miniconda3/share/psi4/basis/jun-cc-pvtz-jkfit.gbs 

  ==> Pre-Iterations <==

   -------------------------------------------------------
    Irrep   Nso     Nmo     Nalpha   Nbeta   Ndocc  Nsocc
   -------------------------------------------------------
     A        430     430       0       0       0       0
   -------------------------------------------------------
    Total     430     430      16      16      16       0
   -------------------------------------------------------

  ==> Integral Setup <==

  ==> DiskDFJK: Density-Fitted J/K Matrices <==

    J tasked:                  Yes
    K tasked:                  Yes
    wK tasked:                  No
    OpenMP threads:              1
    Integrals threads:           1
    Memory [MiB]:            15735
    Algorithm:                Core
    Integral Cache:           LOAD
    Schwarz Cutoff:          1E-12
    Fitting Condition:       1E-10

   => Auxiliary Basis Set <=

  Basis Set: (JUN-CC-PVTZ AUX)
    Blend: JUN-CC-PVTZ-JKFIT
    Number of shells: 314
    Number of basis function: 990
    Number of Cartesian functions: 1186
    Spherical Harmonics?: true
    Max angular momentum: 4

  Minimum eigenvalue in the overlap matrix is 3.6488398334E-05.
  Using Symmetric Orthogonalization.

  SCF Guess: Superposition of Atomic Densities via on-the-fly atomic UHF.

  ==> Iterations <==

                           Total Energy        Delta E     RMS |[F,P]|

   @DF-RHF iter SAD:  -155.38411804704941   -1.55384e+02   0.00000e+00 
   @DF-RHF iter   1:  -155.99468953455369   -6.10571e-01   1.21621e-03 DIIS
   @DF-RHF iter   2:  -156.13453814641679   -1.39849e-01   5.38266e-04 DIIS
   @DF-RHF iter   3:  -156.16246340323326   -2.79253e-02   1.03753e-04 DIIS
   @DF-RHF iter   4:  -156.16430138934163   -1.83799e-03   3.83104e-05 DIIS
   @DF-RHF iter   5:  -156.16446771845878   -1.66329e-04   7.18687e-06 DIIS
   @DF-RHF iter   6:  -156.16447652743844   -8.80898e-06   1.30597e-06 DIIS
   @DF-RHF iter   7:  -156.16447687830606   -3.50868e-07   3.55519e-07 DIIS
   @DF-RHF iter   8:  -156.16447690455996   -2.62539e-08   1.05533e-07 DIIS
   @DF-RHF iter   9:  -156.16447690719389   -2.63393e-09   4.54518e-08 DIIS
   @DF-RHF iter  10:  -156.16447690772725   -5.33362e-10   1.44415e-08 DIIS
   @DF-RHF iter  11:  -156.16447690778614   -5.88898e-11   3.61638e-09 DIIS
  Energy and wave function converged.


  ==> Post-Iterations <==

    Orbital Energies [Eh]
    ---------------------

    Doubly Occupied:                                                      

       1A    -11.231247     2A    -11.224821     3A    -11.217529  
       4A    -11.214607     5A     -1.081069     6A     -0.988248  
       7A     -0.855990     8A     -0.755767     9A     -0.643377  
      10A     -0.606610    11A     -0.585662    12A     -0.535156  
      13A     -0.517590    14A     -0.486993    15A     -0.476949  
      16A     -0.357352  

    Virtual:                                                              

      17A      0.037778    18A      0.051080    19A      0.052990  
      20A      0.057633    21A      0.071384    22A      0.072873  
      23A      0.083209    24A      0.090557    25A      0.095778  
      26A      0.106600    27A      0.113373    28A      0.118260  
      29A      0.120295    30A      0.124666    31A      0.128905  
      32A      0.130418    33A      0.134956    34A      0.153659  
      35A      0.159718    36A      0.162570    37A      0.182674  
      38A      0.190207    39A      0.194652    40A      0.213919  
      41A      0.217386    42A      0.233378    43A      0.242621  
      44A      0.250143    45A      0.266106    46A      0.275514  
      47A      0.282342    48A      0.292614    49A      0.306044  
      50A      0.307909    51A      0.313857    52A      0.321425  
      53A      0.327637    54A      0.331916    55A      0.336016  
      56A      0.347062    57A      0.354307    58A      0.359056  
      59A      0.363812    60A      0.367915    61A      0.376452  
      62A      0.384428    63A      0.390310    64A      0.392333  
      65A      0.409798    66A      0.415510    67A      0.422276  
      68A      0.428428    69A      0.437120    70A      0.445561  
      71A      0.449635    72A      0.455674    73A      0.463709  
      74A      0.471841    75A      0.478661    76A      0.497008  
      77A      0.509373    78A      0.515005    79A      0.520760  
      80A      0.533229    81A      0.541443    82A      0.547525  
      83A      0.554345    84A      0.559187    85A      0.572961  
      86A      0.578051    87A      0.584200    88A      0.597556  
      89A      0.602140    90A      0.618575    91A      0.632182  
      92A      0.643194    93A      0.646457    94A      0.663968  
      95A      0.674087    96A      0.699286    97A      0.715323  
      98A      0.731623    99A      0.749371   100A      0.749713  
     101A      0.767210   102A      0.783201   103A      0.785521  
     104A      0.803947   105A      0.808504   106A      0.823488  
     107A      0.826088   108A      0.845242   109A      0.856309  
     110A      0.868938   111A      0.891428   112A      0.897917  
     113A      0.906576   114A      0.917769   115A      0.957912  
     116A      0.962263   117A      0.980285   118A      1.011913  
     119A      1.023593   120A      1.037284   121A      1.038724  
     122A      1.051802   123A      1.064029   124A      1.067352  
     125A      1.080798   126A      1.098436   127A      1.115332  
     128A      1.121525   129A      1.134783   130A      1.136462  
     131A      1.144924   132A      1.167638   133A      1.168154  
     134A      1.184146   135A      1.201833   136A      1.221935  
     137A      1.225118   138A      1.238874   139A      1.262804  
     140A      1.263770   141A      1.278363   142A      1.288120  
     143A      1.291882   144A      1.301752   145A      1.310633  
     146A      1.336073   147A      1.343404   148A      1.352879  
     149A      1.358704   150A      1.359012   151A      1.375546  
     152A      1.391976   153A      1.400866   154A      1.417634  
     155A      1.425475   156A      1.455802   157A      1.461377  
     158A      1.464832   159A      1.477967   160A      1.498031  
     161A      1.518986   162A      1.524221   163A      1.531981  
     164A      1.550953   165A      1.562498   166A      1.571130  
     167A      1.574006   168A      1.592390   169A      1.596723  
     170A      1.612790   171A      1.626790   172A      1.635963  
     173A      1.645850   174A      1.673103   175A      1.675158  
     176A      1.686863   177A      1.695908   178A      1.723410  
     179A      1.752492   180A      1.761554   181A      1.769476  
     182A      1.778243   183A      1.782923   184A      1.804247  
     185A      1.823353   186A      1.835356   187A      1.854598  
     188A      1.862921   189A      1.899146   190A      1.946784  
     191A      1.966327   192A      1.975112   193A      2.003779  
     194A      2.018005   195A      2.072624   196A      2.094250  
     197A      2.114749   198A      2.133555   199A      2.231766  
     200A      2.263941   201A      2.293371   202A      2.328791  
     203A      2.408336   204A      2.414029   205A      2.522128  
     206A      2.557546   207A      2.686661   208A      2.738297  
     209A      2.775474   210A      2.811201   211A      2.822025  
     212A      2.833845   213A      2.856895   214A      2.884137  
     215A      2.904458   216A      2.914759   217A      2.955065  
     218A      2.965030   219A      2.981845   220A      3.003297  
     221A      3.045238   222A      3.076731   223A      3.088970  
     224A      3.122282   225A      3.132335   226A      3.151523  
     227A      3.162093   228A      3.191942   229A      3.215865  
     230A      3.227373   231A      3.262434   232A      3.270904  
     233A      3.292984   234A      3.306911   235A      3.331144  
     236A      3.346516   237A      3.366423   238A      3.371040  
     239A      3.396391   240A      3.400518   241A      3.426265  
     242A      3.438845   243A      3.471307   244A      3.483911  
     245A      3.499393   246A      3.503863   247A      3.505540  
     248A      3.514863   249A      3.537431   250A      3.546674  
     251A      3.552963   252A      3.563888   253A      3.564582  
     254A      3.568195   255A      3.578029   256A      3.592085  
     257A      3.609752   258A      3.615108   259A      3.643644  
     260A      3.651519   261A      3.666785   262A      3.681350  
     263A      3.702144   264A      3.723610   265A      3.738573  
     266A      3.751148   267A      3.780630   268A      3.794674  
     269A      3.802264   270A      3.808508   271A      3.820667  
     272A      3.825352   273A      3.846938   274A      3.852561  
     275A      3.864853   276A      3.876536   277A      3.892356  
     278A      3.921349   279A      3.937633   280A      3.949319  
     281A      3.969246   282A      3.982752   283A      4.003581  
     284A      4.025989   285A      4.055128   286A      4.071002  
     287A      4.078746   288A      4.086256   289A      4.101462  
     290A      4.105810   291A      4.152974   292A      4.170786  
     293A      4.178636   294A      4.181771   295A      4.208546  
     296A      4.212450   297A      4.245533   298A      4.259049  
     299A      4.276202   300A      4.306237   301A      4.319425  
     302A      4.330253   303A      4.343169   304A      4.346583  
     305A      4.360901   306A      4.369491   307A      4.383711  
     308A      4.408411   309A      4.418181   310A      4.436224  
     311A      4.440107   312A      4.445543   313A      4.456771  
     314A      4.460295   315A      4.473427   316A      4.484697  
     317A      4.515355   318A      4.518056   319A      4.529076  
     320A      4.534630   321A      4.540569   322A      4.547592  
     323A      4.556699   324A      4.568017   325A      4.608420  
     326A      4.618014   327A      4.631138   328A      4.658315  
     329A      4.675716   330A      4.690696   331A      4.714569  
     332A      4.724135   333A      4.737849   334A      4.745424  
     335A      4.749227   336A      4.760710   337A      4.772258  
     338A      4.780295   339A      4.806224   340A      4.817259  
     341A      4.831674   342A      4.845621   343A      4.853489  
     344A      4.865781   345A      4.884786   346A      4.896984  
     347A      4.912857   348A      4.941214   349A      4.946038  
     350A      4.952991   351A      4.973528   352A      4.989813  
     353A      4.996753   354A      5.006796   355A      5.016804  
     356A      5.035117   357A      5.050001   358A      5.068253  
     359A      5.101281   360A      5.106450   361A      5.139608  
     362A      5.205241   363A      5.227393   364A      5.231204  
     365A      5.245358   366A      5.258787   367A      5.289253  
     368A      5.315350   369A      5.322919   370A      5.371977  
     371A      5.394392   372A      5.397462   373A      5.406705  
     374A      5.414314   375A      5.417682   376A      5.446981  
     377A      5.507041   378A      5.576333   379A      5.611971  
     380A      5.645204   381A      5.657026   382A      5.669772  
     383A      5.719374   384A      5.721142   385A      5.730128  
     386A      5.754080   387A      5.785618   388A      5.788682  
     389A      5.833165   390A      5.904165   391A      5.915516  
     392A      5.947489   393A      6.003872   394A      6.006794  
     395A      6.018572   396A      6.166414   397A      6.228585  
     398A      6.329284   399A      6.331456   400A      6.364741  
     401A      6.373382   402A      6.387597   403A      6.413157  
     404A      6.455928   405A      6.458174   406A      6.492757  
     407A      6.502060   408A      6.542710   409A      6.597433  
     410A      6.710551   411A      6.804996   412A      6.900932  
     413A      7.356817   414A      7.497107   415A      7.510178  
     416A      7.650931   417A      7.684117   418A      7.792786  
     419A      7.802470   420A      7.893793   421A      7.922330  
     422A      8.267768   423A      9.722404   424A      9.927184  
     425A     12.212653   426A     14.012627   427A     14.613555  
     428A     15.324217   429A     45.092705   430A     45.617082  

    Final Occupation by Irrep:
              A 
    DOCC [    16 ]

  @DF-RHF Final Energy:  -156.16447690778614

   => Energetics <=

    Nuclear Repulsion Energy =            117.4612467159976603
    One-Electron Energy =                -441.6935091135865150
    Two-Electron Energy =                 168.0677854898027022
    Total Energy =                       -156.1644769077861383

Computation Completed


Properties will be evaluated at   0.000000,   0.000000,   0.000000 [a0]

Properties computed using the SCF density matrix

  Nuclear Dipole Moment: [e a0]
     X:   -78.0794      Y:    -3.5976      Z:     0.1805

  Electronic Dipole Moment: [e a0]
     X:    78.0607      Y:     3.4285      Z:    -0.1592

  Dipole Moment: [e a0]
     X:    -0.0187      Y:    -0.1692      Z:     0.0213     Total:     0.1715

  Dipole Moment: [D]
     X:    -0.0475      Y:    -0.4300      Z:     0.0540     Total:     0.4359


*** tstop() called on r282 at Fri Sep 10 21:22:06 2021
Module time:
	user time   =      20.14 seconds =       0.34 minutes
	system time =       0.45 seconds =       0.01 minutes
	total time  =         21 seconds =       0.35 minutes
Total time:
	user time   =      54.09 seconds =       0.90 minutes
	system time =       1.35 seconds =       0.02 minutes
	total time  =         55 seconds =       0.92 minutes

  //>>>>>>>>>>>>>>>>>>>>>>>>>>>>>>>>>>>//
  //            Monomer B HF           //
  //<<<<<<<<<<<<<<<<<<<<<<<<<<<<<<<<<<<//


*** tstart() called on r282
*** at Fri Sep 10 21:22:06 2021

   => Loading Basis Set <=

    Name: JUN-CC-PVTZ
    Role: ORBITAL
    Keyword: BASIS
    atoms 1-4, 13-14  entry C          line   217 file /home/r08543048/miniconda3/share/psi4/basis/jun-cc-pvtz.gbs 
    atoms 5-12, 15-20 entry H          line    36 file /home/r08543048/miniconda3/share/psi4/basis/jun-cc-pvtz.gbs 


         ---------------------------------------------------------
                                   SCF
               by Justin Turney, Rob Parrish, Andy Simmonett
                          and Daniel G. A. Smith
                              RHF Reference
                        1 Threads,  20980 MiB Core
         ---------------------------------------------------------

  ==> Geometry <==

    Molecular point group: c1
    Full point group: C1

    Geometry (in Angstrom), charge = 0, multiplicity = 1:

       Center              X                  Y                   Z               Mass       
    ------------   -----------------  -----------------  -----------------  -----------------
      Gh(C)          -1.160474858152     1.804348613086     0.072169153656    12.000000000000
      Gh(C)          -1.761981858152     0.627933613086    -0.125724846344    12.000000000000
      Gh(C)          -1.381758858152    -0.647720386914     0.556032153656    12.000000000000
      Gh(C)          -0.956865858152    -1.721201386914    -0.446668846344    12.000000000000
      Gh(H)          -1.470324858152     2.692995613086    -0.459846846344     1.007825032230
      Gh(H)          -0.343928858152     1.900071613086     0.777318153656     1.007825032230
      Gh(H)          -2.575614858152     0.569090613086    -0.843796846344     1.007825032230
      Gh(H)          -0.574707858152    -0.452305386914     1.264752153656     1.007825032230
      Gh(H)          -2.233380858152    -1.017915386914     1.133222153656     1.007825032230
      Gh(H)          -1.761422858152    -1.929344386914    -1.152771846344     1.007825032230
      Gh(H)          -0.087938858152    -1.393362386914    -1.016774846344     1.007825032230
      Gh(H)          -0.704021858152    -2.653168386914     0.058569153656     1.007825032230
         C            2.457947141848    -0.245423386914     0.686938153656    12.000000000000
         C            2.398237141848     0.348001613086    -0.715803846344    12.000000000000
         H            3.474992141848    -0.533052386914     0.951332153656     1.007825032230
         H            1.832158141848    -1.134027386914     0.766312153656     1.007825032230
         H            2.113342141848     0.470428613086     1.433121153656     1.007825032230
         H            2.731595141848    -0.373009386914    -1.461735846344     1.007825032230
         H            3.036680141848     1.227107613086    -0.797667846344     1.007825032230
         H            1.383614141848     0.650687613086    -0.972825846344     1.007825032230

  Running in c1 symmetry.

  Rotational constants: A =      0.11386  B =      0.05302  C =      0.04200 [cm^-1]
  Rotational constants: A =   3413.54929  B =   1589.41998  C =   1259.06927 [MHz]
  Nuclear repulsion =   42.334522316154271

  Charge       = 0
  Multiplicity = 1
  Electrons    = 18
  Nalpha       = 9
  Nbeta        = 9

  ==> Algorithm <==

  SCF Algorithm Type is DF.
  DIIS enabled.
  MOM disabled.
  Fractional occupation disabled.
  Guess Type is SAD.
  Energy threshold   = 1.00e-08
  Density threshold  = 1.00e-08
  Integral threshold = 0.00e+00

  ==> Primary Basis <==

  Basis Set: JUN-CC-PVTZ
    Blend: JUN-CC-PVTZ
    Number of shells: 162
    Number of basis function: 430
    Number of Cartesian functions: 480
    Spherical Harmonics?: true
    Max angular momentum: 3

   => Loading Basis Set <=

    Name: (JUN-CC-PVTZ AUX)
    Role: JKFIT
    Keyword: DF_BASIS_SCF
    atoms 1-4, 13-14  entry C          line   152 file /home/r08543048/miniconda3/share/psi4/basis/jun-cc-pvtz-jkfit.gbs 
    atoms 5-12, 15-20 entry H          line    70 file /home/r08543048/miniconda3/share/psi4/basis/jun-cc-pvtz-jkfit.gbs 

  ==> Pre-Iterations <==

   -------------------------------------------------------
    Irrep   Nso     Nmo     Nalpha   Nbeta   Ndocc  Nsocc
   -------------------------------------------------------
     A        430     430       0       0       0       0
   -------------------------------------------------------
    Total     430     430       9       9       9       0
   -------------------------------------------------------

  ==> Integral Setup <==

  ==> DiskDFJK: Density-Fitted J/K Matrices <==

    J tasked:                  Yes
    K tasked:                  Yes
    wK tasked:                  No
    OpenMP threads:              1
    Integrals threads:           1
    Memory [MiB]:            15735
    Algorithm:                Core
    Integral Cache:           LOAD
    Schwarz Cutoff:          1E-12
    Fitting Condition:       1E-10

   => Auxiliary Basis Set <=

  Basis Set: (JUN-CC-PVTZ AUX)
    Blend: JUN-CC-PVTZ-JKFIT
    Number of shells: 314
    Number of basis function: 990
    Number of Cartesian functions: 1186
    Spherical Harmonics?: true
    Max angular momentum: 4

  Minimum eigenvalue in the overlap matrix is 3.6488398334E-05.
  Using Symmetric Orthogonalization.

  SCF Guess: Superposition of Atomic Densities via on-the-fly atomic UHF.

  ==> Iterations <==

                           Total Energy        Delta E     RMS |[F,P]|

   @DF-RHF iter SAD:   -78.65942496773162   -7.86594e+01   0.00000e+00 
   @DF-RHF iter   1:   -79.14812643999366   -4.88701e-01   1.00975e-03 DIIS
   @DF-RHF iter   2:   -79.23891568403286   -9.07892e-02   4.61121e-04 DIIS
   @DF-RHF iter   3:   -79.25884483280612   -1.99291e-02   7.54103e-05 DIIS
   @DF-RHF iter   4:   -79.26011048438707   -1.26565e-03   1.04602e-05 DIIS
   @DF-RHF iter   5:   -79.26013832737991   -2.78430e-05   1.87057e-06 DIIS
   @DF-RHF iter   6:   -79.26013916886333   -8.41483e-07   2.24697e-07 DIIS
   @DF-RHF iter   7:   -79.26013918174618   -1.28829e-08   2.54757e-08 DIIS
   @DF-RHF iter   8:   -79.26013918188207   -1.35884e-10   5.55351e-09 DIIS
  Energy and wave function converged.


  ==> Post-Iterations <==

    Orbital Energies [Eh]
    ---------------------

    Doubly Occupied:                                                      

       1A    -11.210595     2A    -11.209983     3A     -1.018404  
       4A     -0.841548     5A     -0.597106     6A     -0.596927  
       7A     -0.509757     8A     -0.486675     9A     -0.486441  

    Virtual:                                                              

      10A      0.031804    11A      0.045482    12A      0.050753  
      13A      0.056871    14A      0.071388    15A      0.071660  
      16A      0.086770    17A      0.089944    18A      0.092301  
      19A      0.105388    20A      0.112352    21A      0.117424  
      22A      0.118341    23A      0.124622    24A      0.124981  
      25A      0.130258    26A      0.135727    27A      0.147629  
      28A      0.154688    29A      0.163211    30A      0.169094  
      31A      0.173175    32A      0.192421    33A      0.201693  
      34A      0.222341    35A      0.246075    36A      0.254118  
      37A      0.274222    38A      0.276441    39A      0.283448  
      40A      0.296408    41A      0.300476    42A      0.303467  
      43A      0.314161    44A      0.315711    45A      0.320061  
      46A      0.321193    47A      0.329738    48A      0.338031  
      49A      0.346402    50A      0.353829    51A      0.354160  
      52A      0.359011    53A      0.365740    54A      0.373806  
      55A      0.379033    56A      0.387396    57A      0.392069  
      58A      0.404362    59A      0.409262    60A      0.413711  
      61A      0.421680    62A      0.426234    63A      0.430746  
      64A      0.438424    65A      0.465570    66A      0.484500  
      67A      0.492652    68A      0.503142    69A      0.506069  
      70A      0.510740    71A      0.516940    72A      0.527257  
      73A      0.538152    74A      0.543370    75A      0.568787  
      76A      0.572197    77A      0.586260    78A      0.589389  
      79A      0.597066    80A      0.601776    81A      0.617050  
      82A      0.627436    83A      0.636992    84A      0.652407  
      85A      0.654816    86A      0.669441    87A      0.678633  
      88A      0.683058    89A      0.688771    90A      0.712150  
      91A      0.732801    92A      0.741519    93A      0.751066  
      94A      0.754891    95A      0.762548    96A      0.771343  
      97A      0.783282    98A      0.796924    99A      0.802545  
     100A      0.814805   101A      0.823390   102A      0.833699  
     103A      0.843881   104A      0.863513   105A      0.887557  
     106A      0.909243   107A      0.919692   108A      0.973939  
     109A      0.977638   110A      0.995167   111A      1.034938  
     112A      1.053024   113A      1.076096   114A      1.081834  
     115A      1.085116   116A      1.107467   117A      1.122505  
     118A      1.142423   119A      1.162268   120A      1.168712  
     121A      1.176915   122A      1.197768   123A      1.199377  
     124A      1.220651   125A      1.237738   126A      1.242901  
     127A      1.254241   128A      1.264440   129A      1.274020  
     130A      1.288031   131A      1.309329   132A      1.320480  
     133A      1.326737   134A      1.330554   135A      1.338594  
     136A      1.347831   137A      1.355210   138A      1.360856  
     139A      1.365972   140A      1.375743   141A      1.387019  
     142A      1.395379   143A      1.400544   144A      1.408042  
     145A      1.421528   146A      1.434368   147A      1.443535  
     148A      1.454918   149A      1.462696   150A      1.472266  
     151A      1.484215   152A      1.502462   153A      1.504607  
     154A      1.516022   155A      1.525572   156A      1.547864  
     157A      1.558292   158A      1.566583   159A      1.575163  
     160A      1.578871   161A      1.600601   162A      1.620454  
     163A      1.634063   164A      1.637563   165A      1.646908  
     166A      1.656627   167A      1.668313   168A      1.686477  
     169A      1.692256   170A      1.713683   171A      1.719719  
     172A      1.732231   173A      1.743205   174A      1.778976  
     175A      1.793605   176A      1.799642   177A      1.811712  
     178A      1.842785   179A      1.879312   180A      1.887884  
     181A      1.916902   182A      1.923964   183A      1.944579  
     184A      1.974495   185A      1.990556   186A      1.999685  
     187A      2.034731   188A      2.085859   189A      2.108025  
     190A      2.141320   191A      2.161247   192A      2.213519  
     193A      2.230829   194A      2.276874   195A      2.371628  
     196A      2.388401   197A      2.419717   198A      2.448492  
     199A      2.521610   200A      2.526663   201A      2.559401  
     202A      2.604816   203A      2.719331   204A      2.744830  
     205A      2.754852   206A      2.778766   207A      2.808427  
     208A      2.845785   209A      2.861487   210A      2.908933  
     211A      2.923791   212A      2.971143   213A      3.082562  
     214A      3.100796   215A      3.124906   216A      3.190009  
     217A      3.197742   218A      3.206676   219A      3.233886  
     220A      3.279985   221A      3.304570   222A      3.340169  
     223A      3.344421   224A      3.422716   225A      3.430178  
     226A      3.442653   227A      3.450830   228A      3.462731  
     229A      3.490159   230A      3.499076   231A      3.512649  
     232A      3.520014   233A      3.522712   234A      3.536994  
     235A      3.561609   236A      3.583716   237A      3.589862  
     238A      3.599414   239A      3.613261   240A      3.624271  
     241A      3.640832   242A      3.662962   243A      3.677846  
     244A      3.700351   245A      3.719267   246A      3.725602  
     247A      3.743175   248A      3.760980   249A      3.783891  
     250A      3.789983   251A      3.810059   252A      3.815982  
     253A      3.832303   254A      3.837679   255A      3.842706  
     256A      3.859822   257A      3.865687   258A      3.875262  
     259A      3.882408   260A      3.903617   261A      3.919171  
     262A      3.928352   263A      3.941020   264A      3.947144  
     265A      3.976430   266A      4.012614   267A      4.036057  
     268A      4.047137   269A      4.082609   270A      4.098326  
     271A      4.109569   272A      4.136851   273A      4.161132  
     274A      4.173692   275A      4.179019   276A      4.189138  
     277A      4.190632   278A      4.207512   279A      4.212308  
     280A      4.219737   281A      4.232889   282A      4.249992  
     283A      4.254574   284A      4.274424   285A      4.284439  
     286A      4.299007   287A      4.311384   288A      4.344860  
     289A      4.367329   290A      4.382847   291A      4.418702  
     292A      4.421254   293A      4.440493   294A      4.455138  
     295A      4.465340   296A      4.473628   297A      4.485101  
     298A      4.488002   299A      4.498636   300A      4.504495  
     301A      4.507043   302A      4.523405   303A      4.527695  
     304A      4.545897   305A      4.555825   306A      4.574196  
     307A      4.587619   308A      4.612015   309A      4.619958  
     310A      4.636772   311A      4.660174   312A      4.667126  
     313A      4.674847   314A      4.689688   315A      4.701733  
     316A      4.705096   317A      4.716192   318A      4.734008  
     319A      4.751150   320A      4.766138   321A      4.768660  
     322A      4.788794   323A      4.799481   324A      4.805014  
     325A      4.809042   326A      4.813616   327A      4.825016  
     328A      4.850381   329A      4.858471   330A      4.864194  
     331A      4.876369   332A      4.896502   333A      4.924648  
     334A      4.930419   335A      4.939292   336A      4.949676  
     337A      4.966123   338A      4.982017   339A      5.001350  
     340A      5.014363   341A      5.037044   342A      5.056754  
     343A      5.075914   344A      5.094944   345A      5.146227  
     346A      5.159494   347A      5.176475   348A      5.196732  
     349A      5.213969   350A      5.224110   351A      5.247135  
     352A      5.259339   353A      5.274962   354A      5.295190  
     355A      5.301277   356A      5.318215   357A      5.326114  
     358A      5.343192   359A      5.361280   360A      5.372464  
     361A      5.390127   362A      5.439927   363A      5.465822  
     364A      5.492938   365A      5.567745   366A      5.587897  
     367A      5.654854   368A      5.697474   369A      5.704799  
     370A      5.711875   371A      5.733513   372A      5.766574  
     373A      5.768532   374A      5.775246   375A      5.778121  
     376A      5.810167   377A      5.827429   378A      5.830537  
     379A      5.894826   380A      5.916304   381A      5.922893  
     382A      5.932223   383A      5.978765   384A      6.025515  
     385A      6.067487   386A      6.073259   387A      6.158833  
     388A      6.186100   389A      6.251136   390A      6.337342  
     391A      6.359408   392A      6.368881   393A      6.404804  
     394A      6.455649   395A      6.464739   396A      6.473091  
     397A      6.495664   398A      6.503854   399A      6.540615  
     400A      6.653428   401A      6.728469   402A      6.785101  
     403A      6.865230   404A      6.950797   405A      7.102373  
     406A      7.356202   407A      7.410727   408A      7.489411  
     409A      7.585889   410A      7.600300   411A      7.692515  
     412A      7.715703   413A      7.843705   414A      7.882520  
     415A      7.970605   416A      7.984881   417A      8.128836  
     418A      8.263092   419A      8.423285   420A      8.786007  
     421A      9.397336   422A      9.667068   423A      9.916789  
     424A     10.214143   425A     14.247184   426A     14.675298  
     427A     40.760918   428A     44.736113   429A     45.753168  
     430A     47.129620  

    Final Occupation by Irrep:
              A 
    DOCC [     9 ]

  @DF-RHF Final Energy:   -79.26013918188207

   => Energetics <=

    Nuclear Repulsion Energy =             42.3345223161542705
    One-Electron Energy =                -189.2744530345485146
    Two-Electron Energy =                  67.6797915365121696
    Total Energy =                        -79.2601391818820673

Computation Completed


Properties will be evaluated at   0.000000,   0.000000,   0.000000 [a0]

Properties computed using the SCF density matrix

  Nuclear Dipole Moment: [e a0]
     X:    82.5990      Y:     1.7454      Z:    -0.4812

  Electronic Dipole Moment: [e a0]
     X:   -82.5982      Y:    -1.7451      Z:     0.4813

  Dipole Moment: [e a0]
     X:     0.0008      Y:     0.0003      Z:     0.0001     Total:     0.0008

  Dipole Moment: [D]
     X:     0.0020      Y:     0.0008      Z:     0.0002     Total:     0.0021


*** tstop() called on r282 at Fri Sep 10 21:22:21 2021
Module time:
	user time   =      14.26 seconds =       0.24 minutes
	system time =       0.31 seconds =       0.01 minutes
	total time  =         15 seconds =       0.25 minutes
Total time:
	user time   =      68.35 seconds =       1.14 minutes
	system time =       1.66 seconds =       0.03 minutes
	total time  =         70 seconds =       1.17 minutes
  Constructing Basis Sets for SAPT...

   => Loading Basis Set <=

    Name: (JUN-CC-PVTZ AUX)
    Role: RIFIT
    Keyword: DF_BASIS_SAPT
    atoms 1-4, 13-14  entry C          line   132 file /home/r08543048/miniconda3/share/psi4/basis/jun-cc-pvtz-ri.gbs 
    atoms 5-12, 15-20 entry H          line    30 file /home/r08543048/miniconda3/share/psi4/basis/jun-cc-pvtz-ri.gbs 


  //>>>>>>>>>>>>>>>>>>>>>>>>>>>>>>>>>>>//
  //               SAPT0               //
  //<<<<<<<<<<<<<<<<<<<<<<<<<<<<<<<<<<<//


*** tstart() called on r282
*** at Fri Sep 10 21:22:21 2021

        SAPT0  
    Ed Hohenstein
     6 June 2009

      Orbital Information
  --------------------------
    NSO        =       430
    NMO        =       430
    NRI        =      1002
    NOCC A     =        16
    NOCC B     =         9
    FOCC A     =         0
    FOCC B     =         0
    NVIR A     =       414
    NVIR B     =       421

    Elst10,r            =    -0.001783019769 [Eh]
    Exch10              =     0.004834970413 [Eh]
    Exch10 (S^2)        =     0.004825558568 [Eh]

    Iter     Energy [mEh]          dE [mEh]         Residual      Time [s]
       1      -0.42498145       0.424981449       2.564663631             1
       2      -0.52404930       0.099067856       0.455061964             1
       3      -0.52241258      -0.001636723       0.201487733             2
       4      -0.52128881      -0.001123769       0.053174204             2
       5      -0.52139822       0.000109409       0.020364394             3
       6      -0.52150675       0.000108525       0.005422897             3
       7      -0.52149107      -0.000015680       0.002338300             4
       8      -0.52148344      -0.000007627       0.000598121             5
       9      -0.52148605       0.000002611       0.000136626             5
      10      -0.52148606       0.000000011       0.000044536             6
      11      -0.52148593      -0.000000129       0.000010407             6
      12      -0.52148594       0.000000007       0.000002343             7
      13      -0.52148594       0.000000006       0.000000597             8

    CHF Iterations converged


    Iter     Energy [mEh]          dE [mEh]         Residual      Time [s]
       1      -0.28868977       0.288689770       2.197149967             0
       2      -0.35054661       0.061856842       0.318701446             1
       3      -0.34894333      -0.001603282       0.090321042             1
       4      -0.34878678      -0.000156548       0.024931351             2
       5      -0.34888007       0.000093285       0.005550517             2
       6      -0.34888931       0.000009247       0.001089834             3
       7      -0.34888548      -0.000003829       0.000219579             3
       8      -0.34888557       0.000000084       0.000063196             4
       9      -0.34888569       0.000000122       0.000014280             5
      10      -0.34888569      -0.000000003       0.000002519             5
      11      -0.34888568      -0.000000005       0.000000475             6

    CHF Iterations converged

    Ind20,r (A<-B)      =    -0.000521485944 [Eh]
    Ind20,r (B<-A)      =    -0.000348885682 [Eh]
    Ind20,r             =    -0.000870371627 [Eh]
    Exch-Ind20,r (A<-B) =     0.000480441487 [Eh]
    Exch-Ind20,r (B<-A) =     0.000268554743 [Eh]
    Exch-Ind20,r        =     0.000748996230 [Eh]
    Disp20              =    -0.006106335966 [Eh]
    Disp20 (SS)         =    -0.003053167983 [Eh]
    Disp20 (OS)         =    -0.003053167983 [Eh]
    Exch-Disp20         =     0.000529738553 [Eh]
    Exch-Disp20 (SS)    =     0.000351141641 [Eh]
    Exch-Disp20 (OS)    =     0.000178596912 [Eh]

    SAPT Results 
  --------------------------------------------------------------------------------------------------------
    Electrostatics                 -1.78301977 [mEh]      -1.11886180 [kcal/mol]      -4.68131776 [kJ/mol]
      Elst10,r                     -1.78301977 [mEh]      -1.11886180 [kcal/mol]      -4.68131776 [kJ/mol]

    Exchange                        4.83497041 [mEh]       3.03398974 [kcal/mol]      12.69421307 [kJ/mol]
      Exch10                        4.83497041 [mEh]       3.03398974 [kcal/mol]      12.69421307 [kJ/mol]
      Exch10(S^2)                   4.82555857 [mEh]       3.02808372 [kcal/mol]      12.66950228 [kJ/mol]

    Induction                      -0.47067347 [mEh]      -0.29535206 [kcal/mol]      -1.23575302 [kJ/mol]
      Ind20,r                      -0.87037163 [mEh]      -0.54616644 [kcal/mol]      -2.28516039 [kJ/mol]
      Exch-Ind20,r                  0.74899623 [mEh]       0.47000223 [kcal/mol]       1.96648933 [kJ/mol]
      delta HF,r (2)               -0.34929807 [mEh]      -0.21918785 [kcal/mol]      -0.91708196 [kJ/mol]

    Dispersion                     -5.57659741 [mEh]      -3.49936771 [kcal/mol]     -14.64135449 [kJ/mol]
      Disp20                       -6.10633597 [mEh]      -3.83178367 [kcal/mol]     -16.03218287 [kJ/mol]
      Exch-Disp20                   0.52973855 [mEh]       0.33241596 [kcal/mol]       1.39082838 [kJ/mol]
      Disp20 (SS)                  -3.05316798 [mEh]      -1.91589183 [kcal/mol]      -8.01609144 [kJ/mol]
      Disp20 (OS)                  -3.05316798 [mEh]      -1.91589183 [kcal/mol]      -8.01609144 [kJ/mol]
      Exch-Disp20 (SS)              0.35114164 [mEh]       0.22034471 [kcal/mol]       0.92192225 [kJ/mol]
      Exch-Disp20 (OS)              0.17859691 [mEh]       0.11207125 [kcal/mol]       0.46890613 [kJ/mol]

  Total HF                          2.58127718 [mEh]       1.61977588 [kcal/mol]       6.77714229 [kJ/mol]
  Total SAPT0                      -2.99532024 [mEh]      -1.87959183 [kcal/mol]      -7.86421220 [kJ/mol]

  Special recipe for scaled SAPT0 (see Manual):
    Electrostatics sSAPT0          -1.78301977 [mEh]      -1.11886180 [kcal/mol]      -4.68131776 [kJ/mol]
    Exchange sSAPT0                 4.83497041 [mEh]       3.03398974 [kcal/mol]      12.69421307 [kJ/mol]
    Induction sSAPT0               -0.46628235 [mEh]      -0.29259659 [kcal/mol]      -1.22422415 [kJ/mol]
    Dispersion sSAPT0              -5.57349173 [mEh]      -3.49741886 [kcal/mol]     -14.63320053 [kJ/mol]
  Total sSAPT0                     -2.98782344 [mEh]      -1.87488752 [kcal/mol]      -7.84452937 [kJ/mol]
  --------------------------------------------------------------------------------------------------------

*** tstop() called on r282 at Fri Sep 10 21:23:24 2021
Module time:
	user time   =      53.96 seconds =       0.90 minutes
	system time =       9.36 seconds =       0.16 minutes
	total time  =         63 seconds =       1.05 minutes
Total time:
	user time   =     122.44 seconds =       2.04 minutes
	system time =      11.02 seconds =       0.18 minutes
	total time  =        133 seconds =       2.22 minutes

    Psi4 stopped on: Friday, 10 September 2021 09:23PM
    Psi4 wall time for execution: 0:02:13.69

*** Psi4 exiting successfully. Buy a developer a beer!
