
    -----------------------------------------------------------------------
          Psi4: An Open-Source Ab Initio Electronic Structure Package
                               Psi4 1.3.2 release

                         Git: Rev {HEAD} ecbda83 


    R. M. Parrish, L. A. Burns, D. G. A. Smith, A. C. Simmonett,
    A. E. DePrince III, E. G. Hohenstein, U. Bozkaya, A. Yu. Sokolov,
    R. Di Remigio, R. M. Richard, J. F. Gonthier, A. M. James,
    H. R. McAlexander, A. Kumar, M. Saitow, X. Wang, B. P. Pritchard,
    P. Verma, H. F. Schaefer III, K. Patkowski, R. A. King, E. F. Valeev,
    F. A. Evangelista, J. M. Turney, T. D. Crawford, and C. D. Sherrill,
    J. Chem. Theory Comput. 13(7) pp 3185--3197 (2017).
    (doi: 10.1021/acs.jctc.7b00174)


                         Additional Contributions by
    P. Kraus, H. Kruse, M. H. Lechner, M. C. Schieber, R. A. Shaw,
    A. Alenaizan, R. Galvelis, Z. L. Glick, S. Lehtola, and J. P. Misiewicz

    -----------------------------------------------------------------------


    Psi4 started on: Friday, 10 September 2021 09:19PM

    Process ID: 57128
    Host:       r282
    PSIDATADIR: /home/r08543048/miniconda3/share/psi4
    Memory:     500.0 MiB
    Threads:    1
    
  ==> Input File <==

--------------------------------------------------------------------------
# Any line starting with the # character is a comment line
#! Sample  computation

memory 22 gb

molecule Dimer {
0 1
 C 1.614871    1.261418    0.037696
 C 1.604923   -0.003650    0.465349
 C 1.417469   -1.194143   -0.418805
 H 1.753093    2.085548    0.723289
 H 1.484294    1.496581   -1.011159
 H 1.738253   -0.196059    1.525231
 H 0.524368   -1.753288   -0.133213
 H 1.317368   -0.894612   -1.461398
 H 2.263456   -1.878140   -0.336880












 --
0 1
 C -2.091873   -0.341899    0.667203
 C -2.009392    0.425552   -0.646403
 H -2.906733    0.027491    1.288981
 H -1.167585   -0.239584    1.234932
 H -2.264447   -1.404039    0.494254
 H -1.826274    1.484802   -0.470280
 H -2.934558    0.335516   -1.214935
 H -1.197225    0.052112   -1.269060


units angstrom

no_reorient
symmetry c1
}

set globals{
  basis jun-cc-pvtz
}

energy('sapt0')


--------------------------------------------------------------------------

  Memory set to  20.489 GiB by Python driver.

  //>>>>>>>>>>>>>>>>>>>>>>>>>>>>>>>>>>>//
  //              Dimer HF             //
  //<<<<<<<<<<<<<<<<<<<<<<<<<<<<<<<<<<<//


*** tstart() called on r282
*** at Fri Sep 10 21:19:58 2021

   => Loading Basis Set <=

    Name: JUN-CC-PVTZ
    Role: ORBITAL
    Keyword: BASIS
    atoms 1-3, 10-11 entry C          line   217 file /home/r08543048/miniconda3/share/psi4/basis/jun-cc-pvtz.gbs 
    atoms 4-9, 12-17 entry H          line    36 file /home/r08543048/miniconda3/share/psi4/basis/jun-cc-pvtz.gbs 


         ---------------------------------------------------------
                                   SCF
               by Justin Turney, Rob Parrish, Andy Simmonett
                          and Daniel G. A. Smith
                              RHF Reference
                        1 Threads,  20980 MiB Core
         ---------------------------------------------------------

  ==> Geometry <==

    Molecular point group: c1
    Full point group: C1

    Geometry (in Angstrom), charge = 0, multiplicity = 1:

       Center              X                  Y                   Z               Mass       
    ------------   -----------------  -----------------  -----------------  -----------------
         C            1.570611766452     1.249256787562     0.029022445594    12.000000000000
         C            1.560663766452    -0.015811212438     0.456675445594    12.000000000000
         C            1.373209766452    -1.206304212438    -0.427478554406    12.000000000000
         H            1.708833766452     2.073386787562     0.714615445594     1.007825032230
         H            1.440034766452     1.484419787562    -1.019832554406     1.007825032230
         H            1.693993766452    -0.208220212438     1.516557445594     1.007825032230
         H            0.480108766452    -1.765449212438    -0.141886554406     1.007825032230
         H            1.273108766452    -0.906773212438    -1.470071554406     1.007825032230
         H            2.219196766452    -1.890301212438    -0.345553554406     1.007825032230
         C           -2.136132233548    -0.354060212438     0.658529445594    12.000000000000
         C           -2.053651233548     0.413390787562    -0.655076554406    12.000000000000
         H           -2.950992233548     0.015329787562     1.280307445594     1.007825032230
         H           -1.211844233548    -0.251745212438     1.226258445594     1.007825032230
         H           -2.308706233548    -1.416200212438     0.485580445594     1.007825032230
         H           -1.870533233548     1.472640787562    -0.478953554406     1.007825032230
         H           -2.978817233548     0.323354787562    -1.223608554406     1.007825032230
         H           -1.241484233548     0.039950787562    -1.277733554406     1.007825032230

  Running in c1 symmetry.

  Rotational constants: A =      0.19526  B =      0.06502  C =      0.05822 [cm^-1]
  Rotational constants: A =   5853.81830  B =   1949.12882  C =   1745.52794 [MHz]
  Nuclear repulsion =  172.088585263551948

  Charge       = 0
  Multiplicity = 1
  Electrons    = 42
  Nalpha       = 21
  Nbeta        = 21

  ==> Algorithm <==

  SCF Algorithm Type is DF.
  DIIS enabled.
  MOM disabled.
  Fractional occupation disabled.
  Guess Type is SAD.
  Energy threshold   = 1.00e-08
  Density threshold  = 1.00e-08
  Integral threshold = 0.00e+00

  ==> Primary Basis <==

  Basis Set: JUN-CC-PVTZ
    Blend: JUN-CC-PVTZ
    Number of shells: 137
    Number of basis function: 363
    Number of Cartesian functions: 405
    Spherical Harmonics?: true
    Max angular momentum: 3

   => Loading Basis Set <=

    Name: (JUN-CC-PVTZ AUX)
    Role: JKFIT
    Keyword: DF_BASIS_SCF
    atoms 1-3, 10-11 entry C          line   152 file /home/r08543048/miniconda3/share/psi4/basis/jun-cc-pvtz-jkfit.gbs 
    atoms 4-9, 12-17 entry H          line    70 file /home/r08543048/miniconda3/share/psi4/basis/jun-cc-pvtz-jkfit.gbs 

  ==> Pre-Iterations <==

   -------------------------------------------------------
    Irrep   Nso     Nmo     Nalpha   Nbeta   Ndocc  Nsocc
   -------------------------------------------------------
     A        363     363       0       0       0       0
   -------------------------------------------------------
    Total     363     363      21      21      21       0
   -------------------------------------------------------

  ==> Integral Setup <==

  ==> DiskDFJK: Density-Fitted J/K Matrices <==

    J tasked:                  Yes
    K tasked:                  Yes
    wK tasked:                  No
    OpenMP threads:              1
    Integrals threads:           1
    Memory [MiB]:            15735
    Algorithm:                Core
    Integral Cache:           SAVE
    Schwarz Cutoff:          1E-12
    Fitting Condition:       1E-10

   => Auxiliary Basis Set <=

  Basis Set: (JUN-CC-PVTZ AUX)
    Blend: JUN-CC-PVTZ-JKFIT
    Number of shells: 265
    Number of basis function: 835
    Number of Cartesian functions: 1000
    Spherical Harmonics?: true
    Max angular momentum: 4

  Minimum eigenvalue in the overlap matrix is 4.0890136318E-05.
  Using Symmetric Orthogonalization.

  SCF Guess: Superposition of Atomic Densities via on-the-fly atomic UHF.

  ==> Iterations <==

                           Total Energy        Delta E     RMS |[F,P]|

   @DF-RHF iter SAD:  -195.10500323054345   -1.95105e+02   0.00000e+00 
   @DF-RHF iter   1:  -196.13398205239261   -1.02898e+00   1.73204e-03 DIIS
   @DF-RHF iter   2:  -196.33171109425240   -1.97729e-01   7.68132e-04 DIIS
   @DF-RHF iter   3:  -196.37176521200504   -4.00541e-02   1.35152e-04 DIIS
   @DF-RHF iter   4:  -196.37437834674861   -2.61313e-03   3.40060e-05 DIIS
   @DF-RHF iter   5:  -196.37448745186171   -1.09105e-04   1.12484e-05 DIIS
   @DF-RHF iter   6:  -196.37449930490118   -1.18530e-05   2.02684e-06 DIIS
   @DF-RHF iter   7:  -196.37449986388211   -5.58981e-07   6.20801e-07 DIIS
   @DF-RHF iter   8:  -196.37449991398177   -5.00997e-08   1.95370e-07 DIIS
   @DF-RHF iter   9:  -196.37449992064217   -6.66040e-09   7.77321e-08 DIIS
   @DF-RHF iter  10:  -196.37449992194340   -1.30123e-09   2.19581e-08 DIIS
   @DF-RHF iter  11:  -196.37449992204273   -9.93339e-11   5.10885e-09 DIIS
  Energy and wave function converged.


  ==> Post-Iterations <==

    Orbital Energies [Eh]
    ---------------------

    Doubly Occupied:                                                      

       1A    -11.234187     2A    -11.220877     3A    -11.217555  
       4A    -11.206374     5A    -11.205635     6A     -1.065679  
       7A     -1.014719     8A     -0.933427     9A     -0.837841  
      10A     -0.758675    11A     -0.640434    12A     -0.598927  
      13A     -0.593834    14A     -0.583083    15A     -0.563925  
      16A     -0.523972    17A     -0.505939    18A     -0.493398  
      19A     -0.483013    20A     -0.482240    21A     -0.358416  

    Virtual:                                                              

      22A      0.053326    23A      0.054753    24A      0.058053  
      25A      0.064629    26A      0.074044    27A      0.091225  
      28A      0.091919    29A      0.095838    30A      0.098099  
      31A      0.115746    32A      0.124200    33A      0.124529  
      34A      0.129208    35A      0.136295    36A      0.139319  
      37A      0.156491    38A      0.178577    39A      0.186168  
      40A      0.191623    41A      0.203936    42A      0.218842  
      43A      0.252581    44A      0.258690    45A      0.265692  
      46A      0.275995    47A      0.286559    48A      0.292403  
      49A      0.306242    50A      0.309566    51A      0.320178  
      52A      0.326304    53A      0.328392    54A      0.336572  
      55A      0.341258    56A      0.345928    57A      0.347426  
      58A      0.352445    59A      0.360295    60A      0.363227  
      61A      0.370783    62A      0.382908    63A      0.387894  
      64A      0.388927    65A      0.399743    66A      0.409100  
      67A      0.424010    68A      0.440778    69A      0.448204  
      70A      0.452805    71A      0.461399    72A      0.481017  
      73A      0.504212    74A      0.505342    75A      0.520463  
      76A      0.523888    77A      0.539222    78A      0.543815  
      79A      0.551451    80A      0.552347    81A      0.560460  
      82A      0.612589    83A      0.649066    84A      0.659336  
      85A      0.686518    86A      0.692421    87A      0.704090  
      88A      0.722666    89A      0.728578    90A      0.739431  
      91A      0.742204    92A      0.752156    93A      0.761063  
      94A      0.765423    95A      0.770882    96A      0.789913  
      97A      0.796434    98A      0.808408    99A      0.813316  
     100A      0.831712   101A      0.836704   102A      0.853542  
     103A      0.858657   104A      0.871119   105A      0.881200  
     106A      0.901405   107A      0.909714   108A      0.933010  
     109A      0.942313   110A      0.953334   111A      0.966505  
     112A      0.976186   113A      1.003834   114A      1.008791  
     115A      1.029934   116A      1.043377   117A      1.065976  
     118A      1.079141   119A      1.093939   120A      1.119157  
     121A      1.122323   122A      1.142297   123A      1.159952  
     124A      1.174554   125A      1.182182   126A      1.223603  
     127A      1.240018   128A      1.276384   129A      1.293267  
     130A      1.299594   131A      1.317365   132A      1.337995  
     133A      1.353859   134A      1.368968   135A      1.380992  
     136A      1.395028   137A      1.398297   138A      1.400755  
     139A      1.425598   140A      1.436397   141A      1.448428  
     142A      1.462213   143A      1.464727   144A      1.476814  
     145A      1.488478   146A      1.510666   147A      1.521737  
     148A      1.548419   149A      1.568368   150A      1.594842  
     151A      1.603780   152A      1.613918   153A      1.622439  
     154A      1.636322   155A      1.644249   156A      1.653467  
     157A      1.657166   158A      1.681689   159A      1.704567  
     160A      1.710504   161A      1.740767   162A      1.773506  
     163A      1.786213   164A      1.797752   165A      1.819141  
     166A      1.851465   167A      1.882301   168A      1.892067  
     169A      1.911340   170A      1.929982   171A      1.933858  
     172A      2.010429   173A      2.036850   174A      2.056957  
     175A      2.208888   176A      2.634899   177A      2.689911  
     178A      2.713990   179A      2.739290   180A      2.754008  
     181A      2.777481   182A      2.783392   183A      2.802422  
     184A      2.820685   185A      2.825414   186A      2.839126  
     187A      2.849490   188A      2.856815   189A      2.876492  
     190A      2.887297   191A      2.927817   192A      2.949749  
     193A      3.004051   194A      3.018722   195A      3.060826  
     196A      3.069759   197A      3.080584   198A      3.086460  
     199A      3.101561   200A      3.128176   201A      3.129581  
     202A      3.150751   203A      3.166033   204A      3.183267  
     205A      3.192934   206A      3.202314   207A      3.209291  
     208A      3.218597   209A      3.247884   210A      3.261302  
     211A      3.275408   212A      3.292600   213A      3.298715  
     214A      3.314130   215A      3.321581   216A      3.336815  
     217A      3.343573   218A      3.357685   219A      3.360473  
     220A      3.378242   221A      3.389925   222A      3.422655  
     223A      3.436590   224A      3.447535   225A      3.453694  
     226A      3.467965   227A      3.495231   228A      3.496219  
     229A      3.503959   230A      3.513499   231A      3.525834  
     232A      3.535146   233A      3.546560   234A      3.553054  
     235A      3.586204   236A      3.592700   237A      3.611724  
     238A      3.620932   239A      3.664166   240A      3.673928  
     241A      3.692784   242A      3.705585   243A      3.738056  
     244A      3.749808   245A      3.762265   246A      3.785590  
     247A      3.794051   248A      3.801275   249A      3.824664  
     250A      3.840678   251A      3.857659   252A      3.871683  
     253A      3.877517   254A      3.881333   255A      3.912145  
     256A      3.923439   257A      3.934236   258A      3.970035  
     259A      3.976592   260A      4.014516   261A      4.047786  
     262A      4.075748   263A      4.093176   264A      4.134825  
     265A      4.153039   266A      4.192784   267A      4.194040  
     268A      4.199494   269A      4.215396   270A      4.221217  
     271A      4.237067   272A      4.251983   273A      4.276947  
     274A      4.290592   275A      4.302312   276A      4.304380  
     277A      4.315516   278A      4.355321   279A      4.374018  
     280A      4.381810   281A      4.399716   282A      4.407212  
     283A      4.417972   284A      4.442717   285A      4.448535  
     286A      4.478562   287A      4.483668   288A      4.496270  
     289A      4.499822   290A      4.513618   291A      4.523561  
     292A      4.536967   293A      4.542571   294A      4.574401  
     295A      4.604048   296A      4.639511   297A      4.653624  
     298A      4.685091   299A      4.687666   300A      4.708107  
     301A      4.737147   302A      4.775902   303A      4.795145  
     304A      4.806346   305A      4.819780   306A      4.834084  
     307A      4.848169   308A      4.905395   309A      4.924910  
     310A      4.952251   311A      5.029101   312A      5.073288  
     313A      5.179712   314A      5.184676   315A      5.205682  
     316A      5.212277   317A      5.214123   318A      5.224846  
     319A      5.274052   320A      5.296878   321A      5.299549  
     322A      5.314327   323A      5.325716   324A      5.333033  
     325A      5.347071   326A      5.357530   327A      5.382519  
     328A      5.389866   329A      5.436065   330A      5.479828  
     331A      5.564559   332A      5.629299   333A      5.681965  
     334A      5.688773   335A      5.701613   336A      5.711247  
     337A      5.749437   338A      5.760766   339A      5.766390  
     340A      5.776208   341A      5.781320   342A      5.796333  
     343A      5.810641   344A      5.855453   345A      5.920008  
     346A      5.929497   347A      5.935504   348A      5.962187  
     349A      6.092389   350A      6.384047   351A      6.442678  
     352A      6.454102   353A      6.468961   354A      6.470774  
     355A      6.500732   356A      6.528207   357A      6.533452  
     358A      6.704307   359A     12.202629   360A     14.264957  
     361A     14.559706   362A     14.722868   363A     15.328218  

    Final Occupation by Irrep:
              A 
    DOCC [    21 ]

  @DF-RHF Final Energy:  -196.37449992204273

   => Energetics <=

    Nuclear Repulsion Energy =            172.0885852635519484
    One-Electron Energy =                -603.8818708276164671
    Two-Electron Energy =                 235.4187856420217599
    Total Energy =                       -196.3744999220427303

Computation Completed


Properties will be evaluated at   0.000000,   0.000000,   0.000000 [a0]

Properties computed using the SCF density matrix

  Nuclear Dipole Moment: [e a0]
     X:    -3.5128      Y:    -0.9652      Z:    -0.6884

  Electronic Dipole Moment: [e a0]
     X:     3.5243      Y:     0.8298      Z:     0.6923

  Dipole Moment: [e a0]
     X:     0.0115      Y:    -0.1354      Z:     0.0039     Total:     0.1360

  Dipole Moment: [D]
     X:     0.0293      Y:    -0.3442      Z:     0.0099     Total:     0.3456


*** tstop() called on r282 at Fri Sep 10 21:20:17 2021
Module time:
	user time   =      18.94 seconds =       0.32 minutes
	system time =       0.54 seconds =       0.01 minutes
	total time  =         19 seconds =       0.32 minutes
Total time:
	user time   =      18.94 seconds =       0.32 minutes
	system time =       0.54 seconds =       0.01 minutes
	total time  =         19 seconds =       0.32 minutes

  //>>>>>>>>>>>>>>>>>>>>>>>>>>>>>>>>>>>//
  //            Monomer A HF           //
  //<<<<<<<<<<<<<<<<<<<<<<<<<<<<<<<<<<<//


*** tstart() called on r282
*** at Fri Sep 10 21:20:17 2021

   => Loading Basis Set <=

    Name: JUN-CC-PVTZ
    Role: ORBITAL
    Keyword: BASIS
    atoms 1-3, 10-11 entry C          line   217 file /home/r08543048/miniconda3/share/psi4/basis/jun-cc-pvtz.gbs 
    atoms 4-9, 12-17 entry H          line    36 file /home/r08543048/miniconda3/share/psi4/basis/jun-cc-pvtz.gbs 


         ---------------------------------------------------------
                                   SCF
               by Justin Turney, Rob Parrish, Andy Simmonett
                          and Daniel G. A. Smith
                              RHF Reference
                        1 Threads,  20980 MiB Core
         ---------------------------------------------------------

  ==> Geometry <==

    Molecular point group: c1
    Full point group: C1

    Geometry (in Angstrom), charge = 0, multiplicity = 1:

       Center              X                  Y                   Z               Mass       
    ------------   -----------------  -----------------  -----------------  -----------------
         C            1.570611766452     1.249256787562     0.029022445594    12.000000000000
         C            1.560663766452    -0.015811212438     0.456675445594    12.000000000000
         C            1.373209766452    -1.206304212438    -0.427478554406    12.000000000000
         H            1.708833766452     2.073386787562     0.714615445594     1.007825032230
         H            1.440034766452     1.484419787562    -1.019832554406     1.007825032230
         H            1.693993766452    -0.208220212438     1.516557445594     1.007825032230
         H            0.480108766452    -1.765449212438    -0.141886554406     1.007825032230
         H            1.273108766452    -0.906773212438    -1.470071554406     1.007825032230
         H            2.219196766452    -1.890301212438    -0.345553554406     1.007825032230
      Gh(C)          -2.136132233548    -0.354060212438     0.658529445594    12.000000000000
      Gh(C)          -2.053651233548     0.413390787562    -0.655076554406    12.000000000000
      Gh(H)          -2.950992233548     0.015329787562     1.280307445594     1.007825032230
      Gh(H)          -1.211844233548    -0.251745212438     1.226258445594     1.007825032230
      Gh(H)          -2.308706233548    -1.416200212438     0.485580445594     1.007825032230
      Gh(H)          -1.870533233548     1.472640787562    -0.478953554406     1.007825032230
      Gh(H)          -2.978817233548     0.323354787562    -1.223608554406     1.007825032230
      Gh(H)          -1.241484233548     0.039950787562    -1.277733554406     1.007825032230

  Running in c1 symmetry.

  Rotational constants: A =      0.19526  B =      0.06502  C =      0.05822 [cm^-1]
  Rotational constants: A =   5853.81830  B =   1949.12882  C =   1745.52794 [MHz]
  Nuclear repulsion =   70.871587798952348

  Charge       = 0
  Multiplicity = 1
  Electrons    = 24
  Nalpha       = 12
  Nbeta        = 12

  ==> Algorithm <==

  SCF Algorithm Type is DF.
  DIIS enabled.
  MOM disabled.
  Fractional occupation disabled.
  Guess Type is SAD.
  Energy threshold   = 1.00e-08
  Density threshold  = 1.00e-08
  Integral threshold = 0.00e+00

  ==> Primary Basis <==

  Basis Set: JUN-CC-PVTZ
    Blend: JUN-CC-PVTZ
    Number of shells: 137
    Number of basis function: 363
    Number of Cartesian functions: 405
    Spherical Harmonics?: true
    Max angular momentum: 3

   => Loading Basis Set <=

    Name: (JUN-CC-PVTZ AUX)
    Role: JKFIT
    Keyword: DF_BASIS_SCF
    atoms 1-3, 10-11 entry C          line   152 file /home/r08543048/miniconda3/share/psi4/basis/jun-cc-pvtz-jkfit.gbs 
    atoms 4-9, 12-17 entry H          line    70 file /home/r08543048/miniconda3/share/psi4/basis/jun-cc-pvtz-jkfit.gbs 

  ==> Pre-Iterations <==

   -------------------------------------------------------
    Irrep   Nso     Nmo     Nalpha   Nbeta   Ndocc  Nsocc
   -------------------------------------------------------
     A        363     363       0       0       0       0
   -------------------------------------------------------
    Total     363     363      12      12      12       0
   -------------------------------------------------------

  ==> Integral Setup <==

  ==> DiskDFJK: Density-Fitted J/K Matrices <==

    J tasked:                  Yes
    K tasked:                  Yes
    wK tasked:                  No
    OpenMP threads:              1
    Integrals threads:           1
    Memory [MiB]:            15735
    Algorithm:                Core
    Integral Cache:           LOAD
    Schwarz Cutoff:          1E-12
    Fitting Condition:       1E-10

   => Auxiliary Basis Set <=

  Basis Set: (JUN-CC-PVTZ AUX)
    Blend: JUN-CC-PVTZ-JKFIT
    Number of shells: 265
    Number of basis function: 835
    Number of Cartesian functions: 1000
    Spherical Harmonics?: true
    Max angular momentum: 4

  Minimum eigenvalue in the overlap matrix is 4.0890136318E-05.
  Using Symmetric Orthogonalization.

  SCF Guess: Superposition of Atomic Densities via on-the-fly atomic UHF.

  ==> Iterations <==

                           Total Energy        Delta E     RMS |[F,P]|

   @DF-RHF iter SAD:  -116.33370822364850   -1.16334e+02   0.00000e+00 
   @DF-RHF iter   1:  -116.98773849010361   -6.54030e-01   1.26356e-03 DIIS
   @DF-RHF iter   2:  -117.09543931237828   -1.07701e-01   5.42641e-04 DIIS
   @DF-RHF iter   3:  -117.11555706440090   -2.01178e-02   9.75361e-05 DIIS
   @DF-RHF iter   4:  -117.11685205419096   -1.29499e-03   2.94305e-05 DIIS
   @DF-RHF iter   5:  -117.11692638098509   -7.43268e-05   7.88902e-06 DIIS
   @DF-RHF iter   6:  -117.11693259655044   -6.21557e-06   1.42424e-06 DIIS
   @DF-RHF iter   7:  -117.11693290566986   -3.09119e-07   5.23888e-07 DIIS
   @DF-RHF iter   8:  -117.11693294665339   -4.09835e-08   1.81421e-07 DIIS
   @DF-RHF iter   9:  -117.11693295253296   -5.87957e-09   6.58679e-08 DIIS
   @DF-RHF iter  10:  -117.11693295347845   -9.45491e-10   1.48998e-08 DIIS
   @DF-RHF iter  11:  -117.11693295352073   -4.22773e-11   2.63104e-09 DIIS
  Energy and wave function converged.


  ==> Post-Iterations <==

    Orbital Energies [Eh]
    ---------------------

    Doubly Occupied:                                                      

       1A    -11.234302     2A    -11.220827     3A    -11.217429  
       4A     -1.064941     5A     -0.932946     6A     -0.758079  
       7A     -0.639906     8A     -0.582827     9A     -0.568654  
      10A     -0.523236    11A     -0.492929    12A     -0.358065  

    Virtual:                                                              

      13A      0.039705    14A      0.050258    15A      0.055381  
      16A      0.059464    17A      0.072097    18A      0.084541  
      19A      0.090677    20A      0.093030    21A      0.098153  
      22A      0.110867    23A      0.116078    24A      0.122535  
      25A      0.124946    26A      0.128932    27A      0.140172  
      28A      0.147263    29A      0.161823    30A      0.170207  
      31A      0.186281    32A      0.200052    33A      0.210848  
      34A      0.226904    35A      0.240963    36A      0.248823  
      37A      0.263490    38A      0.279032    39A      0.290192  
      40A      0.303929    41A      0.306576    42A      0.310004  
      43A      0.326579    44A      0.334139    45A      0.336796  
      46A      0.345638    47A      0.349093    48A      0.350949  
      49A      0.353035    50A      0.370080    51A      0.370763  
      52A      0.376096    53A      0.388263    54A      0.391566  
      55A      0.397294    56A      0.405353    57A      0.425411  
      58A      0.433733    59A      0.439298    60A      0.453466  
      61A      0.467632    62A      0.478423    63A      0.482595  
      64A      0.495429    65A      0.498651    66A      0.524855  
      67A      0.531387    68A      0.533353    69A      0.545631  
      70A      0.554137    71A      0.564177    72A      0.566417  
      73A      0.577307    74A      0.605178    75A      0.619372  
      76A      0.632437    77A      0.637491    78A      0.655055  
      79A      0.665945    80A      0.700236    81A      0.714834  
      82A      0.726856    83A      0.742504    84A      0.752347  
      85A      0.769038    86A      0.770913    87A      0.784149  
      88A      0.809350    89A      0.819072    90A      0.855503  
      91A      0.867406    92A      0.873192    93A      0.896096  
      94A      0.912164    95A      0.946803    96A      0.967680  
      97A      0.979719    98A      1.013430    99A      1.030721  
     100A      1.048666   101A      1.061564   102A      1.070386  
     103A      1.087475   104A      1.090793   105A      1.104344  
     106A      1.115687   107A      1.122175   108A      1.129019  
     109A      1.138362   110A      1.158449   111A      1.172385  
     112A      1.191320   113A      1.203327   114A      1.205812  
     115A      1.216317   116A      1.240498   117A      1.254807  
     118A      1.264988   119A      1.283352   120A      1.306002  
     121A      1.313123   122A      1.323266   123A      1.339153  
     124A      1.349371   125A      1.357712   126A      1.367352  
     127A      1.377768   128A      1.390886   129A      1.409670  
     130A      1.420280   131A      1.431770   132A      1.448705  
     133A      1.465510   134A      1.471780   135A      1.506947  
     136A      1.523230   137A      1.539304   138A      1.543851  
     139A      1.554625   140A      1.581729   141A      1.587017  
     142A      1.593506   143A      1.610855   144A      1.626633  
     145A      1.640088   146A      1.650836   147A      1.664311  
     148A      1.667641   149A      1.705804   150A      1.720578  
     151A      1.752136   152A      1.757795   153A      1.778514  
     154A      1.791477   155A      1.824102   156A      1.830204  
     157A      1.858587   158A      1.894157   159A      1.927084  
     160A      1.970324   161A      1.998184   162A      2.041349  
     163A      2.062381   164A      2.093068   165A      2.096962  
     166A      2.213282   167A      2.243294   168A      2.299539  
     169A      2.320188   170A      2.410228   171A      2.418163  
     172A      2.503634   173A      2.555966   174A      2.694232  
     175A      2.725014   176A      2.793858   177A      2.810115  
     178A      2.820011   179A      2.854047   180A      2.863160  
     181A      2.866068   182A      2.922241   183A      2.977574  
     184A      3.022407   185A      3.067726   186A      3.071742  
     187A      3.094248   188A      3.115979   189A      3.158343  
     190A      3.177111   191A      3.193403   192A      3.224095  
     193A      3.242627   194A      3.265892   195A      3.303926  
     196A      3.309461   197A      3.340171   198A      3.350172  
     199A      3.368517   200A      3.388369   201A      3.428720  
     202A      3.435461   203A      3.452606   204A      3.495052  
     205A      3.495849   206A      3.507532   207A      3.520259  
     208A      3.542727   209A      3.548986   210A      3.565362  
     211A      3.567403   212A      3.578019   213A      3.588356  
     214A      3.597487   215A      3.612067   216A      3.652325  
     217A      3.659451   218A      3.666187   219A      3.677137  
     220A      3.725424   221A      3.747333   222A      3.758198  
     223A      3.785740   224A      3.788365   225A      3.801252  
     226A      3.802686   227A      3.813305   228A      3.828507  
     229A      3.836066   230A      3.853692   231A      3.866816  
     232A      3.912235   233A      3.937766   234A      3.949454  
     235A      3.976866   236A      4.006573   237A      4.037140  
     238A      4.046968   239A      4.074041   240A      4.080772  
     241A      4.087346   242A      4.093605   243A      4.104488  
     244A      4.139136   245A      4.156588   246A      4.180310  
     247A      4.206973   248A      4.211529   249A      4.255079  
     250A      4.291363   251A      4.306028   252A      4.338538  
     253A      4.351198   254A      4.362517   255A      4.368035  
     256A      4.384698   257A      4.388797   258A      4.406127  
     259A      4.422988   260A      4.435213   261A      4.451553  
     262A      4.455107   263A      4.470740   264A      4.501124  
     265A      4.502715   266A      4.515554   267A      4.526642  
     268A      4.530136   269A      4.542073   270A      4.571727  
     271A      4.596786   272A      4.607990   273A      4.610597  
     274A      4.643731   275A      4.650547   276A      4.689437  
     277A      4.717655   278A      4.723239   279A      4.736257  
     280A      4.748885   281A      4.770443   282A      4.774988  
     283A      4.796115   284A      4.805983   285A      4.820613  
     286A      4.839840   287A      4.845601   288A      4.862495  
     289A      4.875327   290A      4.896774   291A      4.912453  
     292A      4.928416   293A      4.949703   294A      4.960927  
     295A      4.976326   296A      4.998532   297A      5.008933  
     298A      5.025416   299A      5.039982   300A      5.056321  
     301A      5.075534   302A      5.102966   303A      5.149490  
     304A      5.191882   305A      5.203712   306A      5.217247  
     307A      5.256649   308A      5.306345   309A      5.326960  
     310A      5.358171   311A      5.387428   312A      5.398247  
     313A      5.409484   314A      5.412792   315A      5.439851  
     316A      5.482882   317A      5.565510   318A      5.631619  
     319A      5.650734   320A      5.663847   321A      5.681605  
     322A      5.691088   323A      5.725581   324A      5.727150  
     325A      5.769792   326A      5.792553   327A      5.857460  
     328A      5.958820   329A      6.002825   330A      6.006675  
     331A      6.091598   332A      6.236576   333A      6.317713  
     334A      6.327574   335A      6.363917   336A      6.370575  
     337A      6.387374   338A      6.394573   339A      6.451799  
     340A      6.456766   341A      6.463812   342A      6.481864  
     343A      6.530249   344A      6.704673   345A      6.812108  
     346A      6.900268   347A      7.356321   348A      7.500039  
     349A      7.516244   350A      7.648161   351A      7.671209  
     352A      7.796853   353A      7.805534   354A      7.897463  
     355A      7.912630   356A      8.263324   357A      9.733231  
     358A      9.908424   359A     12.212255   360A     14.641125  
     361A     15.328466   362A     45.111493   363A     45.570503  

    Final Occupation by Irrep:
              A 
    DOCC [    12 ]

  @DF-RHF Final Energy:  -117.11693295352073

   => Energetics <=

    Nuclear Repulsion Energy =             70.8715877989523477
    One-Electron Energy =                -296.7887596213496977
    Two-Electron Energy =                 108.8002388688766047
    Total Energy =                       -117.1169329535207311

Computation Completed


Properties will be evaluated at   0.000000,   0.000000,   0.000000 [a0]

Properties computed using the SCF density matrix

  Nuclear Dipole Moment: [e a0]
     X:    67.7319      Y:    -1.9844      Z:    -0.7499

  Electronic Dipole Moment: [e a0]
     X:   -67.7435      Y:     1.8185      Z:     0.7442

  Dipole Moment: [e a0]
     X:    -0.0116      Y:    -0.1659      Z:    -0.0058     Total:     0.1664

  Dipole Moment: [D]
     X:    -0.0294      Y:    -0.4217      Z:    -0.0147     Total:     0.4230


*** tstop() called on r282 at Fri Sep 10 21:20:27 2021
Module time:
	user time   =       9.94 seconds =       0.17 minutes
	system time =       0.24 seconds =       0.00 minutes
	total time  =         10 seconds =       0.17 minutes
Total time:
	user time   =      28.88 seconds =       0.48 minutes
	system time =       0.78 seconds =       0.01 minutes
	total time  =         29 seconds =       0.48 minutes

  //>>>>>>>>>>>>>>>>>>>>>>>>>>>>>>>>>>>//
  //            Monomer B HF           //
  //<<<<<<<<<<<<<<<<<<<<<<<<<<<<<<<<<<<//


*** tstart() called on r282
*** at Fri Sep 10 21:20:27 2021

   => Loading Basis Set <=

    Name: JUN-CC-PVTZ
    Role: ORBITAL
    Keyword: BASIS
    atoms 1-3, 10-11 entry C          line   217 file /home/r08543048/miniconda3/share/psi4/basis/jun-cc-pvtz.gbs 
    atoms 4-9, 12-17 entry H          line    36 file /home/r08543048/miniconda3/share/psi4/basis/jun-cc-pvtz.gbs 


         ---------------------------------------------------------
                                   SCF
               by Justin Turney, Rob Parrish, Andy Simmonett
                          and Daniel G. A. Smith
                              RHF Reference
                        1 Threads,  20980 MiB Core
         ---------------------------------------------------------

  ==> Geometry <==

    Molecular point group: c1
    Full point group: C1

    Geometry (in Angstrom), charge = 0, multiplicity = 1:

       Center              X                  Y                   Z               Mass       
    ------------   -----------------  -----------------  -----------------  -----------------
      Gh(C)           1.570611766452     1.249256787562     0.029022445594    12.000000000000
      Gh(C)           1.560663766452    -0.015811212438     0.456675445594    12.000000000000
      Gh(C)           1.373209766452    -1.206304212438    -0.427478554406    12.000000000000
      Gh(H)           1.708833766452     2.073386787562     0.714615445594     1.007825032230
      Gh(H)           1.440034766452     1.484419787562    -1.019832554406     1.007825032230
      Gh(H)           1.693993766452    -0.208220212438     1.516557445594     1.007825032230
      Gh(H)           0.480108766452    -1.765449212438    -0.141886554406     1.007825032230
      Gh(H)           1.273108766452    -0.906773212438    -1.470071554406     1.007825032230
      Gh(H)           2.219196766452    -1.890301212438    -0.345553554406     1.007825032230
         C           -2.136132233548    -0.354060212438     0.658529445594    12.000000000000
         C           -2.053651233548     0.413390787562    -0.655076554406    12.000000000000
         H           -2.950992233548     0.015329787562     1.280307445594     1.007825032230
         H           -1.211844233548    -0.251745212438     1.226258445594     1.007825032230
         H           -2.308706233548    -1.416200212438     0.485580445594     1.007825032230
         H           -1.870533233548     1.472640787562    -0.478953554406     1.007825032230
         H           -2.978817233548     0.323354787562    -1.223608554406     1.007825032230
         H           -1.241484233548     0.039950787562    -1.277733554406     1.007825032230

  Running in c1 symmetry.

  Rotational constants: A =      0.19526  B =      0.06502  C =      0.05822 [cm^-1]
  Rotational constants: A =   5853.81830  B =   1949.12882  C =   1745.52794 [MHz]
  Nuclear repulsion =   42.349190421086575

  Charge       = 0
  Multiplicity = 1
  Electrons    = 18
  Nalpha       = 9
  Nbeta        = 9

  ==> Algorithm <==

  SCF Algorithm Type is DF.
  DIIS enabled.
  MOM disabled.
  Fractional occupation disabled.
  Guess Type is SAD.
  Energy threshold   = 1.00e-08
  Density threshold  = 1.00e-08
  Integral threshold = 0.00e+00

  ==> Primary Basis <==

  Basis Set: JUN-CC-PVTZ
    Blend: JUN-CC-PVTZ
    Number of shells: 137
    Number of basis function: 363
    Number of Cartesian functions: 405
    Spherical Harmonics?: true
    Max angular momentum: 3

   => Loading Basis Set <=

    Name: (JUN-CC-PVTZ AUX)
    Role: JKFIT
    Keyword: DF_BASIS_SCF
    atoms 1-3, 10-11 entry C          line   152 file /home/r08543048/miniconda3/share/psi4/basis/jun-cc-pvtz-jkfit.gbs 
    atoms 4-9, 12-17 entry H          line    70 file /home/r08543048/miniconda3/share/psi4/basis/jun-cc-pvtz-jkfit.gbs 

  ==> Pre-Iterations <==

   -------------------------------------------------------
    Irrep   Nso     Nmo     Nalpha   Nbeta   Ndocc  Nsocc
   -------------------------------------------------------
     A        363     363       0       0       0       0
   -------------------------------------------------------
    Total     363     363       9       9       9       0
   -------------------------------------------------------

  ==> Integral Setup <==

  ==> DiskDFJK: Density-Fitted J/K Matrices <==

    J tasked:                  Yes
    K tasked:                  Yes
    wK tasked:                  No
    OpenMP threads:              1
    Integrals threads:           1
    Memory [MiB]:            15735
    Algorithm:                Core
    Integral Cache:           LOAD
    Schwarz Cutoff:          1E-12
    Fitting Condition:       1E-10

   => Auxiliary Basis Set <=

  Basis Set: (JUN-CC-PVTZ AUX)
    Blend: JUN-CC-PVTZ-JKFIT
    Number of shells: 265
    Number of basis function: 835
    Number of Cartesian functions: 1000
    Spherical Harmonics?: true
    Max angular momentum: 4

  Minimum eigenvalue in the overlap matrix is 4.0890136318E-05.
  Using Symmetric Orthogonalization.

  SCF Guess: Superposition of Atomic Densities via on-the-fly atomic UHF.

  ==> Iterations <==

                           Total Energy        Delta E     RMS |[F,P]|

   @DF-RHF iter SAD:   -78.66117890604295   -7.86612e+01   0.00000e+00 
   @DF-RHF iter   1:   -79.14799485479421   -4.86816e-01   1.19706e-03 DIIS
   @DF-RHF iter   2:   -79.23888789502487   -9.08930e-02   5.46590e-04 DIIS
   @DF-RHF iter   3:   -79.25883917477657   -1.99513e-02   8.93537e-05 DIIS
   @DF-RHF iter   4:   -79.26010492222322   -1.26575e-03   1.23863e-05 DIIS
   @DF-RHF iter   5:   -79.26013274806058   -2.78258e-05   2.21669e-06 DIIS
   @DF-RHF iter   6:   -79.26013359028308   -8.42222e-07   2.65915e-07 DIIS
   @DF-RHF iter   7:   -79.26013360315370   -1.28706e-08   2.93948e-08 DIIS
   @DF-RHF iter   8:   -79.26013360328622   -1.32516e-10   4.85665e-09 DIIS
  Energy and wave function converged.


  ==> Post-Iterations <==

    Orbital Energies [Eh]
    ---------------------

    Doubly Occupied:                                                      

       1A    -11.210450     2A    -11.209828     3A     -1.018669  
       4A     -0.841336     5A     -0.597765     6A     -0.596840  
       7A     -0.509538     8A     -0.487007     9A     -0.486164  

    Virtual:                                                              

      10A      0.035254    11A      0.048432    12A      0.052592  
      13A      0.060769    14A      0.073155    15A      0.087560  
      16A      0.088856    17A      0.092932    18A      0.095288  
      19A      0.109798    20A      0.119324    21A      0.122956  
      22A      0.126557    23A      0.128828    24A      0.140670  
      25A      0.143372    26A      0.154583    27A      0.168585  
      28A      0.168695    29A      0.200559    30A      0.228641  
      31A      0.248839    32A      0.258901    33A      0.267002  
      34A      0.282739    35A      0.288681    36A      0.291736  
      37A      0.298127    38A      0.308585    39A      0.317666  
      40A      0.323303    41A      0.325742    42A      0.337847  
      43A      0.341495    44A      0.346301    45A      0.349911  
      46A      0.357742    47A      0.361821    48A      0.370734  
      49A      0.371513    50A      0.379947    51A      0.392393  
      52A      0.402141    53A      0.410906    54A      0.417935  
      55A      0.427500    56A      0.441863    57A      0.454776  
      58A      0.464984    59A      0.472387    60A      0.487701  
      61A      0.496785    62A      0.506122    63A      0.513457  
      64A      0.528630    65A      0.546631    66A      0.552625  
      67A      0.567164    68A      0.570548    69A      0.587641  
      70A      0.605578    71A      0.616753    72A      0.623947  
      73A      0.646313    74A      0.655118    75A      0.666860  
      76A      0.678797    77A      0.702740    78A      0.709037  
      79A      0.726086    80A      0.743988    81A      0.761677  
      82A      0.764020    83A      0.783018    84A      0.798001  
      85A      0.807810    86A      0.812366    87A      0.829901  
      88A      0.842582    89A      0.865513    90A      0.869448  
      91A      0.883242    92A      0.888484    93A      0.966502  
      94A      0.975014    95A      0.981461    96A      1.025851  
      97A      1.044999    98A      1.066455    99A      1.075480  
     100A      1.087959   101A      1.110661   102A      1.120323  
     103A      1.127946   104A      1.156541   105A      1.176249  
     106A      1.181563   107A      1.204905   108A      1.225486  
     109A      1.230250   110A      1.244309   111A      1.281683  
     112A      1.288672   113A      1.295214   114A      1.311588  
     115A      1.314361   116A      1.332988   117A      1.344777  
     118A      1.353795   119A      1.364091   120A      1.367729  
     121A      1.380910   122A      1.396373   123A      1.399829  
     124A      1.420741   125A      1.431491   126A      1.447725  
     127A      1.457904   128A      1.470657   129A      1.477100  
     130A      1.483718   131A      1.492825   132A      1.502087  
     133A      1.508055   134A      1.516106   135A      1.538646  
     136A      1.547650   137A      1.574115   138A      1.589240  
     139A      1.612210   140A      1.617125   141A      1.639381  
     142A      1.640918   143A      1.651399   144A      1.667180  
     145A      1.680335   146A      1.697046   147A      1.706000  
     148A      1.722559   149A      1.736863   150A      1.764792  
     151A      1.799640   152A      1.809873   153A      1.827629  
     154A      1.871542   155A      1.904434   156A      1.921449  
     157A      1.956918   158A      1.980377   159A      2.020558  
     160A      2.028775   161A      2.062291   162A      2.077655  
     163A      2.102652   164A      2.225279   165A      2.241924  
     166A      2.344710   167A      2.374006   168A      2.447399  
     169A      2.518901   170A      2.535865   171A      2.674431  
     172A      2.727067   173A      2.745579   174A      2.756909  
     175A      2.809797   176A      2.824675   177A      2.862812  
     178A      2.879776   179A      2.904031   180A      2.955168  
     181A      3.079374   182A      3.096224   183A      3.120524  
     184A      3.188600   185A      3.190438   186A      3.201778  
     187A      3.231133   188A      3.282244   189A      3.297559  
     190A      3.334412   191A      3.339746   192A      3.419626  
     193A      3.426471   194A      3.432990   195A      3.438613  
     196A      3.456223   197A      3.487986   198A      3.508169  
     199A      3.511831   200A      3.523308   201A      3.554913  
     202A      3.567516   203A      3.572441   204A      3.580894  
     205A      3.594213   206A      3.603378   207A      3.638394  
     208A      3.654217   209A      3.673076   210A      3.697731  
     211A      3.710298   212A      3.722429   213A      3.737290  
     214A      3.775054   215A      3.784576   216A      3.790223  
     217A      3.804443   218A      3.838062   219A      3.847944  
     220A      3.858552   221A      3.876874   222A      3.886659  
     223A      3.894182   224A      3.908613   225A      3.925911  
     226A      3.943746   227A      3.962763   228A      3.976442  
     229A      4.037529   230A      4.057309   231A      4.063976  
     232A      4.097909   233A      4.102094   234A      4.137059  
     235A      4.153038   236A      4.176812   237A      4.179911  
     238A      4.192321   239A      4.207790   240A      4.214787  
     241A      4.228419   242A      4.239804   243A      4.261829  
     244A      4.264823   245A      4.286153   246A      4.289825  
     247A      4.297813   248A      4.309834   249A      4.360242  
     250A      4.391387   251A      4.397341   252A      4.429420  
     253A      4.440596   254A      4.457011   255A      4.461479  
     256A      4.478662   257A      4.491124   258A      4.493803  
     259A      4.508314   260A      4.514442   261A      4.519669  
     262A      4.540284   263A      4.553296   264A      4.583854  
     265A      4.601995   266A      4.616899   267A      4.623483  
     268A      4.652243   269A      4.665831   270A      4.667848  
     271A      4.697841   272A      4.699632   273A      4.737299  
     274A      4.740183   275A      4.756842   276A      4.788141  
     277A      4.800409   278A      4.804326   279A      4.813638  
     280A      4.823814   281A      4.828360   282A      4.843405  
     283A      4.854140   284A      4.864170   285A      4.920176  
     286A      4.925365   287A      4.937305   288A      4.948536  
     289A      4.975464   290A      4.983410   291A      4.994863  
     292A      5.038794   293A      5.073717   294A      5.101101  
     295A      5.161380   296A      5.169350   297A      5.181950  
     298A      5.211696   299A      5.219752   300A      5.232059  
     301A      5.273708   302A      5.296205   303A      5.307858  
     304A      5.322828   305A      5.331767   306A      5.352639  
     307A      5.365240   308A      5.411453   309A      5.483890  
     310A      5.519400   311A      5.534553   312A      5.559463  
     313A      5.673585   314A      5.698881   315A      5.707952  
     316A      5.759031   317A      5.761751   318A      5.773021  
     319A      5.777500   320A      5.795029   321A      5.806625  
     322A      5.845926   323A      5.900917   324A      5.915743  
     325A      5.925757   326A      5.930401   327A      6.004191  
     328A      6.034498   329A      6.127544   330A      6.142707  
     331A      6.236213   332A      6.265660   333A      6.328971  
     334A      6.380125   335A      6.383351   336A      6.455234  
     337A      6.471944   338A      6.495540   339A      6.520840  
     340A      6.612199   341A      6.717831   342A      6.760950  
     343A      6.842412   344A      7.091728   345A      7.387615  
     346A      7.426487   347A      7.563311   348A      7.603631  
     349A      7.645730   350A      7.814110   351A      7.916477  
     352A      7.982141   353A      8.108070   354A      8.292215  
     355A      8.730125   356A      9.387216   357A      9.887769  
     358A     10.202362   359A     14.259268   360A     14.637505  
     361A     40.766778   362A     45.873443   363A     47.174676  

    Final Occupation by Irrep:
              A 
    DOCC [     9 ]

  @DF-RHF Final Energy:   -79.26013360328622

   => Energetics <=

    Nuclear Repulsion Energy =             42.3491904210865755
    One-Electron Energy =                -189.3034556055823145
    Two-Electron Energy =                  67.6941315812095183
    Total Energy =                        -79.2601336032862207

Computation Completed


Properties will be evaluated at   0.000000,   0.000000,   0.000000 [a0]

Properties computed using the SCF density matrix

  Nuclear Dipole Moment: [e a0]
     X:   -71.2447      Y:     1.0192      Z:     0.0615

  Electronic Dipole Moment: [e a0]
     X:    71.2451      Y:    -1.0185      Z:    -0.0614

  Dipole Moment: [e a0]
     X:     0.0004      Y:     0.0006      Z:     0.0002     Total:     0.0008

  Dipole Moment: [D]
     X:     0.0009      Y:     0.0016      Z:     0.0005     Total:     0.0019


*** tstop() called on r282 at Fri Sep 10 21:20:34 2021
Module time:
	user time   =       6.84 seconds =       0.11 minutes
	system time =       0.20 seconds =       0.00 minutes
	total time  =          7 seconds =       0.12 minutes
Total time:
	user time   =      35.72 seconds =       0.60 minutes
	system time =       0.98 seconds =       0.02 minutes
	total time  =         36 seconds =       0.60 minutes
  Constructing Basis Sets for SAPT...

   => Loading Basis Set <=

    Name: (JUN-CC-PVTZ AUX)
    Role: RIFIT
    Keyword: DF_BASIS_SAPT
    atoms 1-3, 10-11 entry C          line   132 file /home/r08543048/miniconda3/share/psi4/basis/jun-cc-pvtz-ri.gbs 
    atoms 4-9, 12-17 entry H          line    30 file /home/r08543048/miniconda3/share/psi4/basis/jun-cc-pvtz-ri.gbs 


  //>>>>>>>>>>>>>>>>>>>>>>>>>>>>>>>>>>>//
  //               SAPT0               //
  //<<<<<<<<<<<<<<<<<<<<<<<<<<<<<<<<<<<//


*** tstart() called on r282
*** at Fri Sep 10 21:20:35 2021

        SAPT0  
    Ed Hohenstein
     6 June 2009

      Orbital Information
  --------------------------
    NSO        =       363
    NMO        =       363
    NRI        =       845
    NOCC A     =        12
    NOCC B     =         9
    FOCC A     =         0
    FOCC B     =         0
    NVIR A     =       351
    NVIR B     =       354

    Elst10,r            =    -0.001615762819 [Eh]
    Exch10              =     0.004658272105 [Eh]
    Exch10 (S^2)        =     0.004646022822 [Eh]

    Iter     Energy [mEh]          dE [mEh]         Residual      Time [s]
       1      -0.55019157       0.550191571       3.023109564             0
       2      -0.69024835       0.140056783       0.647285376             1
       3      -0.68899633      -0.001252021       0.273417321             1
       4      -0.68672864      -0.002267694       0.059986731             1
       5      -0.68693240       0.000203760       0.023128232             2
       6      -0.68706871       0.000136312       0.005361802             2
       7      -0.68705330      -0.000015412       0.002248496             2
       8      -0.68704583      -0.000007472       0.000638628             3
       9      -0.68704886       0.000003033       0.000162289             3
      10      -0.68704895       0.000000087       0.000046397             3
      11      -0.68704877      -0.000000179       0.000010319             4
      12      -0.68704879       0.000000023       0.000002119             4
      13      -0.68704879       0.000000002       0.000000509             4

    CHF Iterations converged


    Iter     Energy [mEh]          dE [mEh]         Residual      Time [s]
       1      -0.33723459       0.337234588       2.569388777             1
       2      -0.38619037       0.048955781       0.762947626             1
       3      -0.39434533       0.008154956       0.143194196             1
       4      -0.39398568      -0.000359649       0.040536555             2
       5      -0.39366922      -0.000316459       0.006627215             2
       6      -0.39372236       0.000053143       0.001148717             2
       7      -0.39372060      -0.000001763       0.000335483             3
       8      -0.39371942      -0.000001172       0.000070323             3
       9      -0.39371957       0.000000144       0.000012916             3
      10      -0.39371958       0.000000014       0.000002290             4
      11      -0.39371958      -0.000000006       0.000000384             4

    CHF Iterations converged

    Ind20,r (A<-B)      =    -0.000687048794 [Eh]
    Ind20,r (B<-A)      =    -0.000393719577 [Eh]
    Ind20,r             =    -0.001080768370 [Eh]
    Exch-Ind20,r (A<-B) =     0.000660274920 [Eh]
    Exch-Ind20,r (B<-A) =     0.000307230779 [Eh]
    Exch-Ind20,r        =     0.000967505699 [Eh]
    Disp20              =    -0.005855739722 [Eh]
    Disp20 (SS)         =    -0.002927869861 [Eh]
    Disp20 (OS)         =    -0.002927869861 [Eh]
    Exch-Disp20         =     0.000561739660 [Eh]
    Exch-Disp20 (SS)    =     0.000366349162 [Eh]
    Exch-Disp20 (OS)    =     0.000195390498 [Eh]

    SAPT Results 
  --------------------------------------------------------------------------------------------------------
    Electrostatics                 -1.61576282 [mEh]      -1.01390648 [kcal/mol]      -4.24218470 [kJ/mol]
      Elst10,r                     -1.61576282 [mEh]      -1.01390648 [kcal/mol]      -4.24218470 [kJ/mol]

    Exchange                        4.65827211 [mEh]       2.92310988 [kcal/mol]      12.23029173 [kJ/mol]
      Exch10                        4.65827211 [mEh]       2.92310988 [kcal/mol]      12.23029173 [kJ/mol]
      Exch10(S^2)                   4.64602282 [mEh]       2.91542334 [kcal/mol]      12.19813124 [kJ/mol]

    Induction                      -0.47587452 [mEh]      -0.29861577 [kcal/mol]      -1.24940839 [kJ/mol]
      Ind20,r                      -1.08076837 [mEh]      -0.67819239 [kcal/mol]      -2.83755697 [kJ/mol]
      Exch-Ind20,r                  0.96750570 [mEh]       0.60711899 [kcal/mol]       2.54018586 [kJ/mol]
      delta HF,r (2)               -0.36261185 [mEh]      -0.22754237 [kcal/mol]      -0.95203728 [kJ/mol]

    Dispersion                     -5.29400006 [mEh]      -3.32203519 [kcal/mol]     -13.89939525 [kJ/mol]
      Disp20                       -5.85573972 [mEh]      -3.67453215 [kcal/mol]     -15.37424252 [kJ/mol]
      Exch-Disp20                   0.56173966 [mEh]       0.35249696 [kcal/mol]       1.47484727 [kJ/mol]
      Disp20 (SS)                  -2.92786986 [mEh]      -1.83726608 [kcal/mol]      -7.68712126 [kJ/mol]
      Disp20 (OS)                  -2.92786986 [mEh]      -1.83726608 [kcal/mol]      -7.68712126 [kJ/mol]
      Exch-Disp20 (SS)              0.36634916 [mEh]       0.22988757 [kcal/mol]       0.96184959 [kJ/mol]
      Exch-Disp20 (OS)              0.19539050 [mEh]       0.12260939 [kcal/mol]       0.51299768 [kJ/mol]

  Total HF                          2.56663476 [mEh]       1.61058763 [kcal/mol]       6.73869865 [kJ/mol]
  Total SAPT0                      -2.72736530 [mEh]      -1.71144756 [kcal/mol]      -7.16069660 [kJ/mol]

  Special recipe for scaled SAPT0 (see Manual):
    Electrostatics sSAPT0          -1.61576282 [mEh]      -1.01390648 [kcal/mol]      -4.24218470 [kJ/mol]
    Exchange sSAPT0                 4.65827211 [mEh]       2.92310988 [kcal/mol]      12.23029173 [kJ/mol]
    Induction sSAPT0               -0.46820181 [mEh]      -0.29380107 [kcal/mol]      -1.22926370 [kJ/mol]
    Dispersion sSAPT0              -5.28954524 [mEh]      -3.31923975 [kcal/mol]     -13.88769912 [kJ/mol]
  Total sSAPT0                     -2.71523777 [mEh]      -1.70383742 [kcal/mol]      -7.12885578 [kJ/mol]
  --------------------------------------------------------------------------------------------------------

*** tstop() called on r282 at Fri Sep 10 21:21:10 2021
Module time:
	user time   =      28.80 seconds =       0.48 minutes
	system time =       5.70 seconds =       0.09 minutes
	total time  =         35 seconds =       0.58 minutes
Total time:
	user time   =      64.63 seconds =       1.08 minutes
	system time =       6.68 seconds =       0.11 minutes
	total time  =         72 seconds =       1.20 minutes

    Psi4 stopped on: Friday, 10 September 2021 09:21PM
    Psi4 wall time for execution: 0:01:12.13

*** Psi4 exiting successfully. Buy a developer a beer!
