
    -----------------------------------------------------------------------
          Psi4: An Open-Source Ab Initio Electronic Structure Package
                               Psi4 1.3.2 release

                         Git: Rev {HEAD} ecbda83 


    R. M. Parrish, L. A. Burns, D. G. A. Smith, A. C. Simmonett,
    A. E. DePrince III, E. G. Hohenstein, U. Bozkaya, A. Yu. Sokolov,
    R. Di Remigio, R. M. Richard, J. F. Gonthier, A. M. James,
    H. R. McAlexander, A. Kumar, M. Saitow, X. Wang, B. P. Pritchard,
    P. Verma, H. F. Schaefer III, K. Patkowski, R. A. King, E. F. Valeev,
    F. A. Evangelista, J. M. Turney, T. D. Crawford, and C. D. Sherrill,
    J. Chem. Theory Comput. 13(7) pp 3185--3197 (2017).
    (doi: 10.1021/acs.jctc.7b00174)


                         Additional Contributions by
    P. Kraus, H. Kruse, M. H. Lechner, M. C. Schieber, R. A. Shaw,
    A. Alenaizan, R. Galvelis, Z. L. Glick, S. Lehtola, and J. P. Misiewicz

    -----------------------------------------------------------------------


    Psi4 started on: Friday, 10 September 2021 09:23PM

    Process ID: 57134
    Host:       r282
    PSIDATADIR: /home/r08543048/miniconda3/share/psi4
    Memory:     500.0 MiB
    Threads:    1
    
  ==> Input File <==

--------------------------------------------------------------------------
# Any line starting with the # character is a comment line
#! Sample  computation

memory 22 gb

molecule Dimer {
0 1
 C  0.025404    2.472971   -0.172583
 C -1.030989    1.725138    0.159447
 C -1.367399    0.407233   -0.460194
 C -1.349052   -0.733510    0.558719
 C -1.719503   -2.069213   -0.073091
 H  0.706964    2.157147   -0.952905
 H  0.229650    3.412412    0.322043
 H -1.691471    2.072517    0.949337
 H -2.364688    0.454963   -0.909496
 H -0.662177    0.191608   -1.267271
 H -0.355374   -0.792487    1.008278
 H -2.044386   -0.500486    1.369230
 H -2.721330   -2.029365   -0.502655
 H -1.025417   -2.324212   -0.875202
 H -1.698795   -2.877355    0.657433






 --
0 1
 C 2.327634   -0.838315   -0.700013
 C 2.591856   -0.337023    0.714907
 H 2.385114   -0.025381   -1.423656
 H 1.336647   -1.284534   -0.781734
 H 3.054986   -1.594283   -0.994329
 H 1.873086    0.430559    0.999967
 H 3.589214    0.093573    0.798874
 H 2.520280   -1.148350    1.438940


units angstrom

no_reorient
symmetry c1
}

set globals{
  basis jun-cc-pvtz
}

energy('sapt0')


--------------------------------------------------------------------------

  Memory set to  20.489 GiB by Python driver.

  //>>>>>>>>>>>>>>>>>>>>>>>>>>>>>>>>>>>//
  //              Dimer HF             //
  //<<<<<<<<<<<<<<<<<<<<<<<<<<<<<<<<<<<//


*** tstart() called on r282
*** at Fri Sep 10 21:23:25 2021

   => Loading Basis Set <=

    Name: JUN-CC-PVTZ
    Role: ORBITAL
    Keyword: BASIS
    atoms 1-5, 16-17  entry C          line   217 file /home/r08543048/miniconda3/share/psi4/basis/jun-cc-pvtz.gbs 
    atoms 6-15, 18-23 entry H          line    36 file /home/r08543048/miniconda3/share/psi4/basis/jun-cc-pvtz.gbs 


         ---------------------------------------------------------
                                   SCF
               by Justin Turney, Rob Parrish, Andy Simmonett
                          and Daniel G. A. Smith
                              RHF Reference
                        1 Threads,  20980 MiB Core
         ---------------------------------------------------------

  ==> Geometry <==

    Molecular point group: c1
    Full point group: C1

    Geometry (in Angstrom), charge = 0, multiplicity = 1:

       Center              X                  Y                   Z               Mass       
    ------------   -----------------  -----------------  -----------------  -----------------
         C            0.056442885436     2.435675223208    -0.174199789544    12.000000000000
         C           -0.999950114564     1.687842223208     0.157830210456    12.000000000000
         C           -1.336360114564     0.369937223208    -0.461810789544    12.000000000000
         C           -1.318013114564    -0.770805776792     0.557102210456    12.000000000000
         C           -1.688464114564    -2.106508776792    -0.074707789544    12.000000000000
         H            0.738002885436     2.119851223208    -0.954521789544     1.007825032230
         H            0.260688885436     3.375116223208     0.320426210456     1.007825032230
         H           -1.660432114564     2.035221223208     0.947720210456     1.007825032230
         H           -2.333649114564     0.417667223208    -0.911112789544     1.007825032230
         H           -0.631138114564     0.154312223208    -1.268887789544     1.007825032230
         H           -0.324335114564    -0.829782776792     1.006661210456     1.007825032230
         H           -2.013347114564    -0.537781776792     1.367613210456     1.007825032230
         H           -2.690291114564    -2.066660776792    -0.504271789544     1.007825032230
         H           -0.994378114564    -2.361507776792    -0.876818789544     1.007825032230
         H           -1.667756114564    -2.914650776792     0.655816210456     1.007825032230
         C            2.358672885436    -0.875610776792    -0.701629789544    12.000000000000
         C            2.622894885436    -0.374318776792     0.713290210456    12.000000000000
         H            2.416152885436    -0.062676776792    -1.425272789544     1.007825032230
         H            1.367685885436    -1.321829776792    -0.783350789544     1.007825032230
         H            3.086024885436    -1.631578776792    -0.995945789544     1.007825032230
         H            1.904124885436     0.393263223208     0.998350210456     1.007825032230
         H            3.620252885436     0.056277223208     0.797257210456     1.007825032230
         H            2.551318885436    -1.185645776792     1.437323210456     1.007825032230

  Running in c1 symmetry.

  Rotational constants: A =      0.06504  B =      0.04980  C =      0.03197 [cm^-1]
  Rotational constants: A =   1949.71218  B =   1493.03763  C =    958.30067 [MHz]
  Nuclear repulsion =  304.235767001731574

  Charge       = 0
  Multiplicity = 1
  Electrons    = 58
  Nalpha       = 29
  Nbeta        = 29

  ==> Algorithm <==

  SCF Algorithm Type is DF.
  DIIS enabled.
  MOM disabled.
  Fractional occupation disabled.
  Guess Type is SAD.
  Energy threshold   = 1.00e-08
  Density threshold  = 1.00e-08
  Integral threshold = 0.00e+00

  ==> Primary Basis <==

  Basis Set: JUN-CC-PVTZ
    Blend: JUN-CC-PVTZ
    Number of shells: 187
    Number of basis function: 497
    Number of Cartesian functions: 555
    Spherical Harmonics?: true
    Max angular momentum: 3

   => Loading Basis Set <=

    Name: (JUN-CC-PVTZ AUX)
    Role: JKFIT
    Keyword: DF_BASIS_SCF
    atoms 1-5, 16-17  entry C          line   152 file /home/r08543048/miniconda3/share/psi4/basis/jun-cc-pvtz-jkfit.gbs 
    atoms 6-15, 18-23 entry H          line    70 file /home/r08543048/miniconda3/share/psi4/basis/jun-cc-pvtz-jkfit.gbs 

  ==> Pre-Iterations <==

   -------------------------------------------------------
    Irrep   Nso     Nmo     Nalpha   Nbeta   Ndocc  Nsocc
   -------------------------------------------------------
     A        497     497       0       0       0       0
   -------------------------------------------------------
    Total     497     497      29      29      29       0
   -------------------------------------------------------

  ==> Integral Setup <==

  ==> DiskDFJK: Density-Fitted J/K Matrices <==

    J tasked:                  Yes
    K tasked:                  Yes
    wK tasked:                  No
    OpenMP threads:              1
    Integrals threads:           1
    Memory [MiB]:            15735
    Algorithm:                Core
    Integral Cache:           SAVE
    Schwarz Cutoff:          1E-12
    Fitting Condition:       1E-10

   => Auxiliary Basis Set <=

  Basis Set: (JUN-CC-PVTZ AUX)
    Blend: JUN-CC-PVTZ-JKFIT
    Number of shells: 363
    Number of basis function: 1145
    Number of Cartesian functions: 1372
    Spherical Harmonics?: true
    Max angular momentum: 4

  Minimum eigenvalue in the overlap matrix is 3.0618042573E-05.
  Using Symmetric Orthogonalization.

  SCF Guess: Superposition of Atomic Densities via on-the-fly atomic UHF.

  ==> Iterations <==

                           Total Energy        Delta E     RMS |[F,P]|

   @DF-RHF iter SAD:  -273.25248098741179   -2.73252e+02   0.00000e+00 
   @DF-RHF iter   1:  -274.14632390309072   -8.93843e-01   1.45344e-03 DIIS
   @DF-RHF iter   2:  -274.41211422287256   -2.65790e-01   6.45651e-04 DIIS
   @DF-RHF iter   3:  -274.46570363539212   -5.35894e-02   1.20407e-04 DIIS
   @DF-RHF iter   4:  -274.46933833397566   -3.63470e-03   3.52357e-05 DIIS
   @DF-RHF iter   5:  -274.46953953294388   -2.01199e-04   9.25133e-06 DIIS
   @DF-RHF iter   6:  -274.46955660181743   -1.70689e-05   1.98732e-06 DIIS
   @DF-RHF iter   7:  -274.46955745099552   -8.49178e-07   5.26151e-07 DIIS
   @DF-RHF iter   8:  -274.46955751160857   -6.06130e-08   1.26689e-07 DIIS
   @DF-RHF iter   9:  -274.46955751648591   -4.87734e-09   5.06160e-08 DIIS
   @DF-RHF iter  10:  -274.46955751732349   -8.37588e-10   1.92172e-08 DIIS
   @DF-RHF iter  11:  -274.46955751747055   -1.47054e-10   5.84143e-09 DIIS
  Energy and wave function converged.


  ==> Post-Iterations <==

    Orbital Energies [Eh]
    ---------------------

    Doubly Occupied:                                                      

       1A    -11.230870     2A    -11.221729     3A    -11.219187  
       4A    -11.217281     5A    -11.211841     6A    -11.209877  
       7A    -11.206731     8A     -1.089968     9A     -1.022530  
      10A     -1.017248    11A     -0.922900    12A     -0.840486  
      13A     -0.812102    14A     -0.757233    15A     -0.652991  
      16A     -0.619118    17A     -0.597130    18A     -0.595138  
      19A     -0.587262    20A     -0.567216    21A     -0.538271  
      22A     -0.511333    23A     -0.508323    24A     -0.487172  
      25A     -0.485438    26A     -0.483323    27A     -0.472040  
      28A     -0.469290    29A     -0.356282  

    Virtual:                                                              

      30A      0.048974    31A      0.052720    32A      0.054282  
      33A      0.059946    34A      0.069987    35A      0.073646  
      36A      0.081223    37A      0.086219    38A      0.092819  
      39A      0.105206    40A      0.108900    41A      0.116414  
      42A      0.118721    43A      0.121443    44A      0.126721  
      45A      0.128702    46A      0.142792    47A      0.145802  
      48A      0.155722    49A      0.160360    50A      0.170240  
      51A      0.182056    52A      0.186401    53A      0.188953  
      54A      0.199449    55A      0.201934    56A      0.212387  
      57A      0.221198    58A      0.227793    59A      0.251294  
      60A      0.259857    61A      0.267482    62A      0.274441  
      63A      0.285218    64A      0.288818    65A      0.291972  
      66A      0.302790    67A      0.308105    68A      0.314648  
      69A      0.315368    70A      0.324219    71A      0.328841  
      72A      0.333950    73A      0.335368    74A      0.342069  
      75A      0.347825    76A      0.350567    77A      0.354380  
      78A      0.359510    79A      0.368333    80A      0.376356  
      81A      0.383725    82A      0.386047    83A      0.388072  
      84A      0.398572    85A      0.403451    86A      0.411507  
      87A      0.416310    88A      0.420122    89A      0.435362  
      90A      0.444155    91A      0.446262    92A      0.453365  
      93A      0.459668    94A      0.460808    95A      0.477347  
      96A      0.489384    97A      0.503943    98A      0.510273  
      99A      0.513040   100A      0.520152   101A      0.532182  
     102A      0.534328   103A      0.539485   104A      0.552065  
     105A      0.552905   106A      0.560961   107A      0.569346  
     108A      0.578363   109A      0.590626   110A      0.599746  
     111A      0.608493   112A      0.620268   113A      0.632826  
     114A      0.654253   115A      0.662783   116A      0.675996  
     117A      0.693936   118A      0.697321   119A      0.711747  
     120A      0.717847   121A      0.727076   122A      0.737202  
     123A      0.745269   124A      0.752457   125A      0.761363  
     126A      0.765949   127A      0.777847   128A      0.782526  
     129A      0.791383   130A      0.805336   131A      0.814214  
     132A      0.826332   133A      0.828001   134A      0.832576  
     135A      0.838907   136A      0.846689   137A      0.851255  
     138A      0.854250   139A      0.860340   140A      0.879123  
     141A      0.887405   142A      0.893512   143A      0.896241  
     144A      0.905733   145A      0.915588   146A      0.922871  
     147A      0.946775   148A      0.952603   149A      0.956831  
     150A      0.975540   151A      0.980492   152A      0.989385  
     153A      0.997382   154A      1.011969   155A      1.021295  
     156A      1.043236   157A      1.049547   158A      1.057692  
     159A      1.067634   160A      1.081236   161A      1.093379  
     162A      1.118539   163A      1.121297   164A      1.139137  
     165A      1.144930   166A      1.161770   167A      1.187706  
     168A      1.205572   169A      1.216945   170A      1.239419  
     171A      1.246260   172A      1.252857   173A      1.278815  
     174A      1.291528   175A      1.300454   176A      1.311316  
     177A      1.319675   178A      1.334585   179A      1.338852  
     180A      1.341127   181A      1.351789   182A      1.370931  
     183A      1.381263   184A      1.387710   185A      1.392206  
     186A      1.405167   187A      1.418441   188A      1.428537  
     189A      1.434729   190A      1.445314   191A      1.456842  
     192A      1.465121   193A      1.473814   194A      1.486191  
     195A      1.490549   196A      1.499495   197A      1.502645  
     198A      1.531933   199A      1.541094   200A      1.552723  
     201A      1.572771   202A      1.579357   203A      1.586493  
     204A      1.591303   205A      1.605026   206A      1.608513  
     207A      1.623299   208A      1.642554   209A      1.653063  
     210A      1.654675   211A      1.662623   212A      1.673764  
     213A      1.684388   214A      1.693199   215A      1.711583  
     216A      1.728873   217A      1.744148   218A      1.748454  
     219A      1.760033   220A      1.778268   221A      1.779617  
     222A      1.785402   223A      1.800622   224A      1.810520  
     225A      1.850707   226A      1.858826   227A      1.876188  
     228A      1.900244   229A      1.912093   230A      1.930896  
     231A      1.932485   232A      1.941697   233A      1.969276  
     234A      1.988504   235A      1.997326   236A      2.017503  
     237A      2.059866   238A      2.105779   239A      2.122527  
     240A      2.141870   241A      2.277372   242A      2.685182  
     243A      2.726717   244A      2.735685   245A      2.747052  
     246A      2.765415   247A      2.772858   248A      2.793314  
     249A      2.807504   250A      2.821856   251A      2.830135  
     252A      2.839620   253A      2.844445   254A      2.852510  
     255A      2.866564   256A      2.873068   257A      2.883440  
     258A      2.900865   259A      2.915119   260A      2.930249  
     261A      2.962956   262A      2.970978   263A      2.992336  
     264A      2.994361   265A      3.012893   266A      3.043927  
     267A      3.050389   268A      3.071992   269A      3.088787  
     270A      3.095169   271A      3.113559   272A      3.122886  
     273A      3.130243   274A      3.133201   275A      3.160957  
     276A      3.171180   277A      3.178555   278A      3.184566  
     279A      3.192283   280A      3.203668   281A      3.205297  
     282A      3.213782   283A      3.231379   284A      3.236624  
     285A      3.245942   286A      3.257344   287A      3.282366  
     288A      3.287887   289A      3.299197   290A      3.305347  
     291A      3.316748   292A      3.332880   293A      3.346527  
     294A      3.360906   295A      3.364202   296A      3.373598  
     297A      3.389797   298A      3.393954   299A      3.399323  
     300A      3.411750   301A      3.415794   302A      3.439574  
     303A      3.442953   304A      3.452147   305A      3.460879  
     306A      3.475981   307A      3.481925   308A      3.489123  
     309A      3.502356   310A      3.510653   311A      3.512022  
     312A      3.522938   313A      3.527822   314A      3.538514  
     315A      3.542242   316A      3.549061   317A      3.565674  
     318A      3.576602   319A      3.581224   320A      3.591446  
     321A      3.598227   322A      3.603211   323A      3.624452  
     324A      3.630413   325A      3.641530   326A      3.652287  
     327A      3.683117   328A      3.689511   329A      3.697363  
     330A      3.730789   331A      3.737260   332A      3.763430  
     333A      3.772491   334A      3.782027   335A      3.808097  
     336A      3.816818   337A      3.826733   338A      3.838005  
     339A      3.852934   340A      3.860620   341A      3.865099  
     342A      3.878887   343A      3.883265   344A      3.894490  
     345A      3.900856   346A      3.921696   347A      3.936601  
     348A      3.947791   349A      3.964454   350A      3.975455  
     351A      3.988835   352A      4.007587   353A      4.021724  
     354A      4.025274   355A      4.035501   356A      4.050043  
     357A      4.090202   358A      4.116796   359A      4.158603  
     360A      4.166360   361A      4.180799   362A      4.188564  
     363A      4.192009   364A      4.203958   365A      4.212483  
     366A      4.217671   367A      4.235638   368A      4.250444  
     369A      4.253322   370A      4.260753   371A      4.272774  
     372A      4.275918   373A      4.288265   374A      4.294456  
     375A      4.308710   376A      4.333922   377A      4.342422  
     378A      4.353318   379A      4.366002   380A      4.381841  
     381A      4.383834   382A      4.395258   383A      4.398947  
     384A      4.427926   385A      4.438268   386A      4.444322  
     387A      4.453581   388A      4.462027   389A      4.478230  
     390A      4.487219   391A      4.494499   392A      4.498890  
     393A      4.508197   394A      4.514437   395A      4.523084  
     396A      4.531439   397A      4.536055   398A      4.555799  
     399A      4.569653   400A      4.579365   401A      4.596795  
     402A      4.626583   403A      4.636787   404A      4.651027  
     405A      4.666869   406A      4.697261   407A      4.698123  
     408A      4.707613   409A      4.731985   410A      4.741032  
     411A      4.753476   412A      4.778173   413A      4.783555  
     414A      4.809622   415A      4.820233   416A      4.827728  
     417A      4.842184   418A      4.876948   419A      4.887283  
     420A      4.912413   421A      4.946792   422A      4.976424  
     423A      4.990914   424A      5.023178   425A      5.042450  
     426A      5.061233   427A      5.129307   428A      5.149993  
     429A      5.177093   430A      5.185454   431A      5.191250  
     432A      5.213240   433A      5.225233   434A      5.230381  
     435A      5.256171   436A      5.277361   437A      5.282647  
     438A      5.289102   439A      5.297932   440A      5.301215  
     441A      5.321146   442A      5.333341   443A      5.345573  
     444A      5.353277   445A      5.371836   446A      5.385024  
     447A      5.390260   448A      5.423557   449A      5.437821  
     450A      5.455546   451A      5.471229   452A      5.515063  
     453A      5.570426   454A      5.611955   455A      5.637568  
     456A      5.650861   457A      5.692139   458A      5.707170  
     459A      5.716311   460A      5.754776   461A      5.763468  
     462A      5.768343   463A      5.771705   464A      5.782665  
     465A      5.790701   466A      5.804031   467A      5.824707  
     468A      5.829960   469A      5.872143   470A      5.917432  
     471A      5.929058   472A      5.932117   473A      5.940518  
     474A      5.949867   475A      5.956877   476A      5.994678  
     477A      6.022230   478A      6.132934   479A      6.223101  
     480A      6.410734   481A      6.455109   482A      6.482364  
     483A      6.488801   484A      6.506175   485A      6.514954  
     486A      6.527983   487A      6.550324   488A      6.612615  
     489A      6.645687   490A      6.717271   491A     12.317086  
     492A     13.785517   493A     14.255784   494A     14.486942  
     495A     14.560790   496A     14.785766   497A     15.376269  

    Final Occupation by Irrep:
              A 
    DOCC [    29 ]

  @DF-RHF Final Energy:  -274.46955751747055

   => Energetics <=

    Nuclear Repulsion Energy =            304.2357670017315741
    One-Electron Energy =                -971.5900326148394015
    Two-Electron Energy =                 392.8847080956372793
    Total Energy =                       -274.4695575174705482

Computation Completed


Properties will be evaluated at   0.000000,   0.000000,   0.000000 [a0]

Properties computed using the SCF density matrix

  Nuclear Dipole Moment: [e a0]
     X:     3.4020      Y:    -4.0877      Z:    -0.1772

  Electronic Dipole Moment: [e a0]
     X:    -3.4969      Y:     3.9586      Z:     0.2212

  Dipole Moment: [e a0]
     X:    -0.0949      Y:    -0.1291      Z:     0.0440     Total:     0.1662

  Dipole Moment: [D]
     X:    -0.2412      Y:    -0.3282      Z:     0.1118     Total:     0.4223


*** tstop() called on r282 at Fri Sep 10 21:24:28 2021
Module time:
	user time   =      62.01 seconds =       1.03 minutes
	system time =       1.38 seconds =       0.02 minutes
	total time  =         63 seconds =       1.05 minutes
Total time:
	user time   =      62.01 seconds =       1.03 minutes
	system time =       1.38 seconds =       0.02 minutes
	total time  =         63 seconds =       1.05 minutes

  //>>>>>>>>>>>>>>>>>>>>>>>>>>>>>>>>>>>//
  //            Monomer A HF           //
  //<<<<<<<<<<<<<<<<<<<<<<<<<<<<<<<<<<<//


*** tstart() called on r282
*** at Fri Sep 10 21:24:28 2021

   => Loading Basis Set <=

    Name: JUN-CC-PVTZ
    Role: ORBITAL
    Keyword: BASIS
    atoms 1-5, 16-17  entry C          line   217 file /home/r08543048/miniconda3/share/psi4/basis/jun-cc-pvtz.gbs 
    atoms 6-15, 18-23 entry H          line    36 file /home/r08543048/miniconda3/share/psi4/basis/jun-cc-pvtz.gbs 


         ---------------------------------------------------------
                                   SCF
               by Justin Turney, Rob Parrish, Andy Simmonett
                          and Daniel G. A. Smith
                              RHF Reference
                        1 Threads,  20980 MiB Core
         ---------------------------------------------------------

  ==> Geometry <==

    Molecular point group: c1
    Full point group: C1

    Geometry (in Angstrom), charge = 0, multiplicity = 1:

       Center              X                  Y                   Z               Mass       
    ------------   -----------------  -----------------  -----------------  -----------------
         C            0.056442885436     2.435675223208    -0.174199789544    12.000000000000
         C           -0.999950114564     1.687842223208     0.157830210456    12.000000000000
         C           -1.336360114564     0.369937223208    -0.461810789544    12.000000000000
         C           -1.318013114564    -0.770805776792     0.557102210456    12.000000000000
         C           -1.688464114564    -2.106508776792    -0.074707789544    12.000000000000
         H            0.738002885436     2.119851223208    -0.954521789544     1.007825032230
         H            0.260688885436     3.375116223208     0.320426210456     1.007825032230
         H           -1.660432114564     2.035221223208     0.947720210456     1.007825032230
         H           -2.333649114564     0.417667223208    -0.911112789544     1.007825032230
         H           -0.631138114564     0.154312223208    -1.268887789544     1.007825032230
         H           -0.324335114564    -0.829782776792     1.006661210456     1.007825032230
         H           -2.013347114564    -0.537781776792     1.367613210456     1.007825032230
         H           -2.690291114564    -2.066660776792    -0.504271789544     1.007825032230
         H           -0.994378114564    -2.361507776792    -0.876818789544     1.007825032230
         H           -1.667756114564    -2.914650776792     0.655816210456     1.007825032230
      Gh(C)           2.358672885436    -0.875610776792    -0.701629789544    12.000000000000
      Gh(C)           2.622894885436    -0.374318776792     0.713290210456    12.000000000000
      Gh(H)           2.416152885436    -0.062676776792    -1.425272789544     1.007825032230
      Gh(H)           1.367685885436    -1.321829776792    -0.783350789544     1.007825032230
      Gh(H)           3.086024885436    -1.631578776792    -0.995945789544     1.007825032230
      Gh(H)           1.904124885436     0.393263223208     0.998350210456     1.007825032230
      Gh(H)           3.620252885436     0.056277223208     0.797257210456     1.007825032230
      Gh(H)           2.551318885436    -1.185645776792     1.437323210456     1.007825032230

  Running in c1 symmetry.

  Rotational constants: A =      0.06504  B =      0.04980  C =      0.03197 [cm^-1]
  Rotational constants: A =   1949.71218  B =   1493.03763  C =    958.30067 [MHz]
  Nuclear repulsion =  170.519704932431154

  Charge       = 0
  Multiplicity = 1
  Electrons    = 40
  Nalpha       = 20
  Nbeta        = 20

  ==> Algorithm <==

  SCF Algorithm Type is DF.
  DIIS enabled.
  MOM disabled.
  Fractional occupation disabled.
  Guess Type is SAD.
  Energy threshold   = 1.00e-08
  Density threshold  = 1.00e-08
  Integral threshold = 0.00e+00

  ==> Primary Basis <==

  Basis Set: JUN-CC-PVTZ
    Blend: JUN-CC-PVTZ
    Number of shells: 187
    Number of basis function: 497
    Number of Cartesian functions: 555
    Spherical Harmonics?: true
    Max angular momentum: 3

   => Loading Basis Set <=

    Name: (JUN-CC-PVTZ AUX)
    Role: JKFIT
    Keyword: DF_BASIS_SCF
    atoms 1-5, 16-17  entry C          line   152 file /home/r08543048/miniconda3/share/psi4/basis/jun-cc-pvtz-jkfit.gbs 
    atoms 6-15, 18-23 entry H          line    70 file /home/r08543048/miniconda3/share/psi4/basis/jun-cc-pvtz-jkfit.gbs 

  ==> Pre-Iterations <==

   -------------------------------------------------------
    Irrep   Nso     Nmo     Nalpha   Nbeta   Ndocc  Nsocc
   -------------------------------------------------------
     A        497     497       0       0       0       0
   -------------------------------------------------------
    Total     497     497      20      20      20       0
   -------------------------------------------------------

  ==> Integral Setup <==

  ==> DiskDFJK: Density-Fitted J/K Matrices <==

    J tasked:                  Yes
    K tasked:                  Yes
    wK tasked:                  No
    OpenMP threads:              1
    Integrals threads:           1
    Memory [MiB]:            15735
    Algorithm:                Core
    Integral Cache:           LOAD
    Schwarz Cutoff:          1E-12
    Fitting Condition:       1E-10

   => Auxiliary Basis Set <=

  Basis Set: (JUN-CC-PVTZ AUX)
    Blend: JUN-CC-PVTZ-JKFIT
    Number of shells: 363
    Number of basis function: 1145
    Number of Cartesian functions: 1372
    Spherical Harmonics?: true
    Max angular momentum: 4

  Minimum eigenvalue in the overlap matrix is 3.0618042573E-05.
  Using Symmetric Orthogonalization.

  SCF Guess: Superposition of Atomic Densities via on-the-fly atomic UHF.

  ==> Iterations <==

                           Total Energy        Delta E     RMS |[F,P]|

   @DF-RHF iter SAD:  -194.45362517983924   -1.94454e+02   0.00000e+00 
   @DF-RHF iter   1:  -194.99853733248682   -5.44912e-01   1.17445e-03 DIIS
   @DF-RHF iter   2:  -195.17539032993926   -1.76853e-01   5.15574e-04 DIIS
   @DF-RHF iter   3:  -195.20986120038384   -3.44709e-02   9.92334e-05 DIIS
   @DF-RHF iter   4:  -195.21219918839324   -2.33799e-03   3.31573e-05 DIIS
   @DF-RHF iter   5:  -195.21236701477778   -1.67826e-04   6.90268e-06 DIIS
   @DF-RHF iter   6:  -195.21237745999298   -1.04452e-05   1.57729e-06 DIIS
   @DF-RHF iter   7:  -195.21237795808710   -4.98094e-07   4.38200e-07 DIIS
   @DF-RHF iter   8:  -195.21237800059527   -4.25082e-08   9.74850e-08 DIIS
   @DF-RHF iter   9:  -195.21237800359248   -2.99721e-09   3.25225e-08 DIIS
   @DF-RHF iter  10:  -195.21237800398328   -3.90799e-10   1.11844e-08 DIIS
   @DF-RHF iter  11:  -195.21237800402861   -4.53326e-11   3.70780e-09 DIIS
  Energy and wave function converged.


  ==> Post-Iterations <==

    Orbital Energies [Eh]
    ---------------------

    Doubly Occupied:                                                      

       1A    -11.230768     2A    -11.222030     3A    -11.219522  
       4A    -11.217157     5A    -11.211565     6A     -1.089596  
       7A     -1.022086     8A     -0.922587     9A     -0.811861  
      10A     -0.756794    11A     -0.651216    12A     -0.616728  
      13A     -0.589602    14A     -0.567111    15A     -0.537858  
      16A     -0.510921    17A     -0.483581    18A     -0.472882  
      19A     -0.470126    20A     -0.356151  

    Virtual:                                                              

      21A      0.037320    22A      0.048487    23A      0.051991  
      24A      0.056449    25A      0.066958    26A      0.071627  
      27A      0.079994    28A      0.081918    29A      0.090904  
      30A      0.102437    31A      0.103131    32A      0.112888  
      33A      0.115771    34A      0.119715    35A      0.123448  
      36A      0.125992    37A      0.130350    38A      0.143641  
      39A      0.147889    40A      0.157348    41A      0.161038  
      42A      0.165061    43A      0.183990    44A      0.187279  
      45A      0.190571    46A      0.197139    47A      0.205660  
      48A      0.216597    49A      0.221283    50A      0.241368  
      51A      0.245997    52A      0.254394    53A      0.262056  
      54A      0.275774    55A      0.282855    56A      0.293178  
      57A      0.296687    58A      0.306920    59A      0.313221  
      60A      0.317861    61A      0.321719    62A      0.327402  
      63A      0.331479    64A      0.335064    65A      0.343997  
      66A      0.350574    67A      0.354999    68A      0.361908  
      69A      0.370044    70A      0.378087    71A      0.381377  
      72A      0.384006    73A      0.385227    74A      0.398208  
      75A      0.401966    76A      0.409366    77A      0.416508  
      78A      0.421998    79A      0.432065    80A      0.434774  
      81A      0.446382    82A      0.450123    83A      0.457789  
      84A      0.464473    85A      0.467502    86A      0.478083  
      87A      0.489263    88A      0.497103    89A      0.509244  
      90A      0.514962    91A      0.522118    92A      0.525362  
      93A      0.538059    94A      0.539138    95A      0.555243  
      96A      0.558208    97A      0.564514    98A      0.572581  
      99A      0.583704   100A      0.589412   101A      0.592741  
     102A      0.596435   103A      0.604615   104A      0.626180  
     105A      0.630997   106A      0.638257   107A      0.646349  
     108A      0.652975   109A      0.668837   110A      0.679511  
     111A      0.687440   112A      0.699991   113A      0.702621  
     114A      0.741434   115A      0.744834   116A      0.753509  
     117A      0.758626   118A      0.766116   119A      0.775791  
     120A      0.797242   121A      0.806240   122A      0.828500  
     123A      0.830954   124A      0.837953   125A      0.844225  
     126A      0.852660   127A      0.857285   128A      0.868689  
     129A      0.888393   130A      0.890986   131A      0.907903  
     132A      0.919767   133A      0.934619   134A      0.953447  
     135A      0.974493   136A      0.976812   137A      0.994376  
     138A      0.997179   139A      1.008583   140A      1.039593  
     141A      1.053388   142A      1.055655   143A      1.067916  
     144A      1.075561   145A      1.080557   146A      1.095217  
     147A      1.108249   148A      1.121060   149A      1.127256  
     150A      1.135792   151A      1.139548   152A      1.153028  
     153A      1.156698   154A      1.175765   155A      1.189453  
     156A      1.199718   157A      1.216360   158A      1.221633  
     159A      1.241488   160A      1.242163   161A      1.253716  
     162A      1.267122   163A      1.269966   164A      1.278434  
     165A      1.288535   166A      1.309006   167A      1.316271  
     168A      1.316834   169A      1.333167   170A      1.351540  
     171A      1.354743   172A      1.364266   173A      1.364646  
     174A      1.374918   175A      1.386330   176A      1.389206  
     177A      1.406883   178A      1.414382   179A      1.415747  
     180A      1.435585   181A      1.462359   182A      1.467554  
     183A      1.473975   184A      1.486878   185A      1.496837  
     186A      1.509040   187A      1.514545   188A      1.528645  
     189A      1.535856   190A      1.550644   191A      1.567425  
     192A      1.571216   193A      1.575596   194A      1.593416  
     195A      1.598368   196A      1.603577   197A      1.616830  
     198A      1.619108   199A      1.637190   200A      1.639591  
     201A      1.659521   202A      1.661340   203A      1.683533  
     204A      1.699834   205A      1.718971   206A      1.741621  
     207A      1.748994   208A      1.757586   209A      1.762835  
     210A      1.773374   211A      1.780785   212A      1.793641  
     213A      1.798083   214A      1.820837   215A      1.829648  
     216A      1.854157   217A      1.857572   218A      1.886607  
     219A      1.922426   220A      1.947019   221A      1.951628  
     222A      1.964641   223A      1.980689   224A      2.001332  
     225A      2.019552   226A      2.032451   227A      2.090599  
     228A      2.099655   229A      2.124129   230A      2.132889  
     231A      2.161842   232A      2.244249   233A      2.278722  
     234A      2.311567   235A      2.346990   236A      2.411413  
     237A      2.419677   238A      2.542675   239A      2.571316  
     240A      2.713632   241A      2.756064   242A      2.778066  
     243A      2.800906   244A      2.825640   245A      2.840513  
     246A      2.849631   247A      2.854446   248A      2.870262  
     249A      2.895640   250A      2.914178   251A      2.924020  
     252A      2.961137   253A      2.983686   254A      2.994868  
     255A      3.011239   256A      3.044358   257A      3.053032  
     258A      3.083487   259A      3.098942   260A      3.127715  
     261A      3.137777   262A      3.153387   263A      3.166532  
     264A      3.181658   265A      3.192182   266A      3.210308  
     267A      3.228050   268A      3.239544   269A      3.249041  
     270A      3.285010   271A      3.293795   272A      3.313477  
     273A      3.342502   274A      3.352999   275A      3.364939  
     276A      3.371845   277A      3.386206   278A      3.393781  
     279A      3.403885   280A      3.406231   281A      3.434756  
     282A      3.448765   283A      3.463541   284A      3.482880  
     285A      3.491369   286A      3.500275   287A      3.505165  
     288A      3.519725   289A      3.526465   290A      3.544604  
     291A      3.550141   292A      3.552925   293A      3.558736  
     294A      3.564909   295A      3.571851   296A      3.573616  
     297A      3.586903   298A      3.596284   299A      3.598674  
     300A      3.616987   301A      3.629891   302A      3.631238  
     303A      3.655875   304A      3.665755   305A      3.676673  
     306A      3.699763   307A      3.720533   308A      3.723868  
     309A      3.756769   310A      3.762910   311A      3.770510  
     312A      3.798546   313A      3.801818   314A      3.805361  
     315A      3.807732   316A      3.818596   317A      3.832648  
     318A      3.848321   319A      3.857540   320A      3.861104  
     321A      3.893011   322A      3.905723   323A      3.932260  
     324A      3.939993   325A      3.941126   326A      3.959012  
     327A      3.967321   328A      3.979911   329A      3.993031  
     330A      4.010685   331A      4.034133   332A      4.043353  
     333A      4.059280   334A      4.083693   335A      4.089143  
     336A      4.103703   337A      4.121673   338A      4.148031  
     339A      4.167894   340A      4.169436   341A      4.169700  
     342A      4.199401   343A      4.206157   344A      4.208270  
     345A      4.222920   346A      4.247681   347A      4.259621  
     348A      4.268826   349A      4.295106   350A      4.318583  
     351A      4.330335   352A      4.339936   353A      4.344940  
     354A      4.362591   355A      4.374490   356A      4.378168  
     357A      4.383183   358A      4.387100   359A      4.396359  
     360A      4.416326   361A      4.435383   362A      4.445847  
     363A      4.454924   364A      4.457369   365A      4.469803  
     366A      4.476534   367A      4.490092   368A      4.503586  
     369A      4.509546   370A      4.520772   371A      4.526924  
     372A      4.532315   373A      4.545916   374A      4.548305  
     375A      4.563967   376A      4.574487   377A      4.582406  
     378A      4.616213   379A      4.623001   380A      4.625148  
     381A      4.636393   382A      4.667597   383A      4.671279  
     384A      4.700522   385A      4.721094   386A      4.727786  
     387A      4.732556   388A      4.736712   389A      4.756562  
     390A      4.764152   391A      4.766423   392A      4.781454  
     393A      4.797044   394A      4.801342   395A      4.814740  
     396A      4.834289   397A      4.857673   398A      4.861388  
     399A      4.873239   400A      4.875525   401A      4.895980  
     402A      4.916524   403A      4.927571   404A      4.948325  
     405A      4.960760   406A      4.967159   407A      4.969544  
     408A      4.996181   409A      5.007916   410A      5.023664  
     411A      5.027110   412A      5.036139   413A      5.045556  
     414A      5.065799   415A      5.076450   416A      5.103161  
     417A      5.123213   418A      5.152938   419A      5.163137  
     420A      5.187942   421A      5.204567   422A      5.227303  
     423A      5.244838   424A      5.264028   425A      5.287963  
     426A      5.299467   427A      5.307239   428A      5.346872  
     429A      5.371719   430A      5.385476   431A      5.397299  
     432A      5.411230   433A      5.418349   434A      5.431381  
     435A      5.439824   436A      5.457951   437A      5.474824  
     438A      5.516168   439A      5.571347   440A      5.612790  
     441A      5.639075   442A      5.647363   443A      5.651367  
     444A      5.661064   445A      5.716086   446A      5.727386  
     447A      5.737903   448A      5.759389   449A      5.778613  
     450A      5.807964   451A      5.836244   452A      5.873767  
     453A      5.927634   454A      5.932624   455A      5.946858  
     456A      5.984156   457A      6.005162   458A      6.018467  
     459A      6.027497   460A      6.130906   461A      6.219999  
     462A      6.231054   463A      6.333596   464A      6.339818  
     465A      6.380452   466A      6.384007   467A      6.413096  
     468A      6.416531   469A      6.458007   470A      6.458273  
     471A      6.494285   472A      6.520509   473A      6.539991  
     474A      6.601724   475A      6.644408   476A      6.716268  
     477A      6.806857   478A      6.909877   479A      7.359730  
     480A      7.502236   481A      7.516789   482A      7.655592  
     483A      7.687562   484A      7.795625   485A      7.806150  
     486A      7.899779   487A      7.922706   488A      8.284536  
     489A      9.739164   490A      9.957801   491A     12.318883  
     492A     13.816218   493A     14.447409   494A     14.577890  
     495A     15.373988   496A     45.193833   497A     45.703383  

    Final Occupation by Irrep:
              A 
    DOCC [    20 ]

  @DF-RHF Final Energy:  -195.21237800402861

   => Energetics <=

    Nuclear Repulsion Energy =            170.5197049324311536
    One-Electron Energy =                -599.5438820311768495
    Two-Electron Energy =                 233.8117990947170597
    Total Energy =                       -195.2123780040286078

Computation Completed


Properties will be evaluated at   0.000000,   0.000000,   0.000000 [a0]

Properties computed using the SCF density matrix

  Nuclear Dipole Moment: [e a0]
     X:   -81.3238      Y:    17.1750      Z:    -0.3630

  Electronic Dipole Moment: [e a0]
     X:    81.2330      Y:   -17.3269      Z:     0.3876

  Dipole Moment: [e a0]
     X:    -0.0908      Y:    -0.1519      Z:     0.0246     Total:     0.1787

  Dipole Moment: [D]
     X:    -0.2308      Y:    -0.3862      Z:     0.0626     Total:     0.4542


*** tstop() called on r282 at Fri Sep 10 21:25:08 2021
Module time:
	user time   =      38.67 seconds =       0.64 minutes
	system time =       0.72 seconds =       0.01 minutes
	total time  =         40 seconds =       0.67 minutes
Total time:
	user time   =     100.68 seconds =       1.68 minutes
	system time =       2.10 seconds =       0.04 minutes
	total time  =        103 seconds =       1.72 minutes

  //>>>>>>>>>>>>>>>>>>>>>>>>>>>>>>>>>>>//
  //            Monomer B HF           //
  //<<<<<<<<<<<<<<<<<<<<<<<<<<<<<<<<<<<//


*** tstart() called on r282
*** at Fri Sep 10 21:25:08 2021

   => Loading Basis Set <=

    Name: JUN-CC-PVTZ
    Role: ORBITAL
    Keyword: BASIS
    atoms 1-5, 16-17  entry C          line   217 file /home/r08543048/miniconda3/share/psi4/basis/jun-cc-pvtz.gbs 
    atoms 6-15, 18-23 entry H          line    36 file /home/r08543048/miniconda3/share/psi4/basis/jun-cc-pvtz.gbs 


         ---------------------------------------------------------
                                   SCF
               by Justin Turney, Rob Parrish, Andy Simmonett
                          and Daniel G. A. Smith
                              RHF Reference
                        1 Threads,  20980 MiB Core
         ---------------------------------------------------------

  ==> Geometry <==

    Molecular point group: c1
    Full point group: C1

    Geometry (in Angstrom), charge = 0, multiplicity = 1:

       Center              X                  Y                   Z               Mass       
    ------------   -----------------  -----------------  -----------------  -----------------
      Gh(C)           0.056442885436     2.435675223208    -0.174199789544    12.000000000000
      Gh(C)          -0.999950114564     1.687842223208     0.157830210456    12.000000000000
      Gh(C)          -1.336360114564     0.369937223208    -0.461810789544    12.000000000000
      Gh(C)          -1.318013114564    -0.770805776792     0.557102210456    12.000000000000
      Gh(C)          -1.688464114564    -2.106508776792    -0.074707789544    12.000000000000
      Gh(H)           0.738002885436     2.119851223208    -0.954521789544     1.007825032230
      Gh(H)           0.260688885436     3.375116223208     0.320426210456     1.007825032230
      Gh(H)          -1.660432114564     2.035221223208     0.947720210456     1.007825032230
      Gh(H)          -2.333649114564     0.417667223208    -0.911112789544     1.007825032230
      Gh(H)          -0.631138114564     0.154312223208    -1.268887789544     1.007825032230
      Gh(H)          -0.324335114564    -0.829782776792     1.006661210456     1.007825032230
      Gh(H)          -2.013347114564    -0.537781776792     1.367613210456     1.007825032230
      Gh(H)          -2.690291114564    -2.066660776792    -0.504271789544     1.007825032230
      Gh(H)          -0.994378114564    -2.361507776792    -0.876818789544     1.007825032230
      Gh(H)          -1.667756114564    -2.914650776792     0.655816210456     1.007825032230
         C            2.358672885436    -0.875610776792    -0.701629789544    12.000000000000
         C            2.622894885436    -0.374318776792     0.713290210456    12.000000000000
         H            2.416152885436    -0.062676776792    -1.425272789544     1.007825032230
         H            1.367685885436    -1.321829776792    -0.783350789544     1.007825032230
         H            3.086024885436    -1.631578776792    -0.995945789544     1.007825032230
         H            1.904124885436     0.393263223208     0.998350210456     1.007825032230
         H            3.620252885436     0.056277223208     0.797257210456     1.007825032230
         H            2.551318885436    -1.185645776792     1.437323210456     1.007825032230

  Running in c1 symmetry.

  Rotational constants: A =      0.06504  B =      0.04980  C =      0.03197 [cm^-1]
  Rotational constants: A =   1949.71218  B =   1493.03763  C =    958.30067 [MHz]
  Nuclear repulsion =   42.335554816735851

  Charge       = 0
  Multiplicity = 1
  Electrons    = 18
  Nalpha       = 9
  Nbeta        = 9

  ==> Algorithm <==

  SCF Algorithm Type is DF.
  DIIS enabled.
  MOM disabled.
  Fractional occupation disabled.
  Guess Type is SAD.
  Energy threshold   = 1.00e-08
  Density threshold  = 1.00e-08
  Integral threshold = 0.00e+00

  ==> Primary Basis <==

  Basis Set: JUN-CC-PVTZ
    Blend: JUN-CC-PVTZ
    Number of shells: 187
    Number of basis function: 497
    Number of Cartesian functions: 555
    Spherical Harmonics?: true
    Max angular momentum: 3

   => Loading Basis Set <=

    Name: (JUN-CC-PVTZ AUX)
    Role: JKFIT
    Keyword: DF_BASIS_SCF
    atoms 1-5, 16-17  entry C          line   152 file /home/r08543048/miniconda3/share/psi4/basis/jun-cc-pvtz-jkfit.gbs 
    atoms 6-15, 18-23 entry H          line    70 file /home/r08543048/miniconda3/share/psi4/basis/jun-cc-pvtz-jkfit.gbs 

  ==> Pre-Iterations <==

   -------------------------------------------------------
    Irrep   Nso     Nmo     Nalpha   Nbeta   Ndocc  Nsocc
   -------------------------------------------------------
     A        497     497       0       0       0       0
   -------------------------------------------------------
    Total     497     497       9       9       9       0
   -------------------------------------------------------

  ==> Integral Setup <==

  ==> DiskDFJK: Density-Fitted J/K Matrices <==

    J tasked:                  Yes
    K tasked:                  Yes
    wK tasked:                  No
    OpenMP threads:              1
    Integrals threads:           1
    Memory [MiB]:            15735
    Algorithm:                Core
    Integral Cache:           LOAD
    Schwarz Cutoff:          1E-12
    Fitting Condition:       1E-10

   => Auxiliary Basis Set <=

  Basis Set: (JUN-CC-PVTZ AUX)
    Blend: JUN-CC-PVTZ-JKFIT
    Number of shells: 363
    Number of basis function: 1145
    Number of Cartesian functions: 1372
    Spherical Harmonics?: true
    Max angular momentum: 4

  Minimum eigenvalue in the overlap matrix is 3.0618042573E-05.
  Using Symmetric Orthogonalization.

  SCF Guess: Superposition of Atomic Densities via on-the-fly atomic UHF.

  ==> Iterations <==

                           Total Energy        Delta E     RMS |[F,P]|

   @DF-RHF iter SAD:   -78.65953971199012   -7.86595e+01   0.00000e+00 
   @DF-RHF iter   1:   -79.14811465273785   -4.88575e-01   8.73690e-04 DIIS
   @DF-RHF iter   2:   -79.23891354855414   -9.07989e-02   3.99003e-04 DIIS
   @DF-RHF iter   3:   -79.25884715093441   -1.99336e-02   6.52492e-05 DIIS
   @DF-RHF iter   4:   -79.26011297315850   -1.26582e-03   9.05102e-06 DIIS
   @DF-RHF iter   5:   -79.26014082146058   -2.78483e-05   1.61874e-06 DIIS
   @DF-RHF iter   6:   -79.26014166321605   -8.41755e-07   1.94580e-07 DIIS
   @DF-RHF iter   7:   -79.26014167611895   -1.29029e-08   2.24571e-08 DIIS
   @DF-RHF iter   8:   -79.26014167625623   -1.37277e-10   5.52006e-09 DIIS
  Energy and wave function converged.


  ==> Post-Iterations <==

    Orbital Energies [Eh]
    ---------------------

    Doubly Occupied:                                                      

       1A    -11.210595     2A    -11.209981     3A     -1.018430  
       4A     -0.841490     5A     -0.597181     6A     -0.596914  
       7A     -0.509715     8A     -0.486710     9A     -0.486389  

    Virtual:                                                              

      10A      0.029305    11A      0.041360    12A      0.048570  
      13A      0.054393    14A      0.066994    15A      0.069758  
      16A      0.077419    17A      0.083648    18A      0.086159  
      19A      0.102051    20A      0.103976    21A      0.112572  
      22A      0.114433    23A      0.116886    24A      0.119975  
      25A      0.122511    26A      0.127489    27A      0.137790  
      28A      0.143596    29A      0.153933    30A      0.157545  
      31A      0.159799    32A      0.167065    33A      0.173440  
      34A      0.179442    35A      0.187670    36A      0.195721  
      37A      0.204291    38A      0.226938    39A      0.243128  
      40A      0.263644    41A      0.269787    42A      0.279080  
      43A      0.281215    44A      0.292113    45A      0.298129  
      46A      0.301712    47A      0.307477    48A      0.311509  
      49A      0.315070    50A      0.319595    51A      0.321692  
      52A      0.335058    53A      0.340055    54A      0.348475  
      55A      0.350730    56A      0.355975    57A      0.357970  
      58A      0.362305    59A      0.369523    60A      0.379267  
      61A      0.380432    62A      0.386108    63A      0.390873  
      64A      0.400821    65A      0.401642    66A      0.406359  
      67A      0.419049    68A      0.425913    69A      0.429159  
      70A      0.439687    71A      0.442424    72A      0.456355  
      73A      0.468085    74A      0.475271    75A      0.496115  
      76A      0.503024    77A      0.504273    78A      0.510475  
      79A      0.528564    80A      0.533619    81A      0.543342  
      82A      0.547020    83A      0.557244    84A      0.567864  
      85A      0.575472    86A      0.577831    87A      0.585035  
      88A      0.598788    89A      0.603367    90A      0.617631  
      91A      0.623913    92A      0.634014    93A      0.638288  
      94A      0.643331    95A      0.651712    96A      0.665089  
      97A      0.668894    98A      0.676698    99A      0.688030  
     100A      0.694303   101A      0.705053   102A      0.714250  
     103A      0.734637   104A      0.740862   105A      0.744548  
     106A      0.756179   107A      0.764942   108A      0.768828  
     109A      0.781097   110A      0.785710   111A      0.805154  
     112A      0.810402   113A      0.815455   114A      0.827570  
     115A      0.834981   116A      0.856456   117A      0.866151  
     118A      0.885059   119A      0.896725   120A      0.923369  
     121A      0.933139   122A      0.949945   123A      0.975933  
     124A      0.983032   125A      1.004467   126A      1.042003  
     127A      1.060560   128A      1.079316   129A      1.082921  
     130A      1.095548   131A      1.102548   132A      1.116581  
     133A      1.143828   134A      1.152838   135A      1.162503  
     136A      1.179590   137A      1.189833   138A      1.210091  
     139A      1.213985   140A      1.223072   141A      1.228182  
     142A      1.243590   143A      1.249863   144A      1.260236  
     145A      1.268157   146A      1.270821   147A      1.278848  
     148A      1.293985   149A      1.312800   150A      1.321944  
     151A      1.333137   152A      1.341668   153A      1.344938  
     154A      1.347633   155A      1.358412   156A      1.365800  
     157A      1.369438   158A      1.379606   159A      1.392457  
     160A      1.397520   161A      1.401486   162A      1.413685  
     163A      1.420589   164A      1.424913   165A      1.427409  
     166A      1.434965   167A      1.453763   168A      1.459847  
     169A      1.464084   170A      1.478834   171A      1.480785  
     172A      1.499743   173A      1.505777   174A      1.523385  
     175A      1.528184   176A      1.538891   177A      1.542543  
     178A      1.550172   179A      1.569190   180A      1.573439  
     181A      1.580465   182A      1.591269   183A      1.602601  
     184A      1.612396   185A      1.620101   186A      1.635777  
     187A      1.651077   188A      1.654787   189A      1.673353  
     190A      1.677070   191A      1.681763   192A      1.690125  
     193A      1.695367   194A      1.715152   195A      1.736909  
     196A      1.744434   197A      1.761343   198A      1.779173  
     199A      1.790295   200A      1.792336   201A      1.815103  
     202A      1.828226   203A      1.860106   204A      1.871250  
     205A      1.881358   206A      1.905074   207A      1.923068  
     208A      1.934180   209A      1.967765   210A      1.980624  
     211A      1.990781   212A      2.002315   213A      2.034012  
     214A      2.047698   215A      2.099832   216A      2.118766  
     217A      2.144563   218A      2.170687   219A      2.192389  
     220A      2.217003   221A      2.242029   222A      2.278003  
     223A      2.343413   224A      2.362378   225A      2.388853  
     226A      2.422816   227A      2.432291   228A      2.466537  
     229A      2.477425   230A      2.539766   231A      2.568313  
     232A      2.603534   233A      2.639838   234A      2.657534  
     235A      2.755677   236A      2.761023   237A      2.767037  
     238A      2.788933   239A      2.827781   240A      2.859824  
     241A      2.889674   242A      2.916742   243A      2.951536  
     244A      2.979468   245A      3.086488   246A      3.112727  
     247A      3.128435   248A      3.190889   249A      3.205419  
     250A      3.215981   251A      3.240109   252A      3.284868  
     253A      3.308431   254A      3.345412   255A      3.347353  
     256A      3.423346   257A      3.438487   258A      3.448889  
     259A      3.459427   260A      3.480481   261A      3.494732  
     262A      3.498945   263A      3.516798   264A      3.522096  
     265A      3.526394   266A      3.532550   267A      3.561512  
     268A      3.575700   269A      3.586783   270A      3.593033  
     271A      3.596073   272A      3.606785   273A      3.626912  
     274A      3.633207   275A      3.648997   276A      3.674270  
     277A      3.677701   278A      3.688029   279A      3.714187  
     280A      3.733935   281A      3.753685   282A      3.757332  
     283A      3.775727   284A      3.784279   285A      3.809490  
     286A      3.819273   287A      3.826816   288A      3.833431  
     289A      3.846331   290A      3.858839   291A      3.865039  
     292A      3.876086   293A      3.878786   294A      3.887448  
     295A      3.893147   296A      3.904647   297A      3.912695  
     298A      3.916563   299A      3.932649   300A      3.952778  
     301A      3.954210   302A      3.970460   303A      3.996194  
     304A      4.023958   305A      4.044463   306A      4.065957  
     307A      4.081710   308A      4.103392   309A      4.117262  
     310A      4.155482   311A      4.161922   312A      4.177221  
     313A      4.184121   314A      4.188454   315A      4.192841  
     316A      4.196680   317A      4.206960   318A      4.214690  
     319A      4.230225   320A      4.234791   321A      4.242732  
     322A      4.259170   323A      4.265583   324A      4.276688  
     325A      4.293730   326A      4.303139   327A      4.317485  
     328A      4.333226   329A      4.363142   330A      4.386891  
     331A      4.398884   332A      4.426773   333A      4.436137  
     334A      4.441178   335A      4.449946   336A      4.459835  
     337A      4.465538   338A      4.489442   339A      4.497479  
     340A      4.501008   341A      4.504763   342A      4.513414  
     343A      4.517263   344A      4.522399   345A      4.536286  
     346A      4.550342   347A      4.581442   348A      4.591458  
     349A      4.606260   350A      4.611024   351A      4.624694  
     352A      4.631398   353A      4.636448   354A      4.639572  
     355A      4.669874   356A      4.674202   357A      4.683394  
     358A      4.687598   359A      4.695357   360A      4.711304  
     361A      4.713089   362A      4.734778   363A      4.744813  
     364A      4.755806   365A      4.762602   366A      4.776910  
     367A      4.780801   368A      4.793786   369A      4.795180  
     370A      4.807696   371A      4.815416   372A      4.825272  
     373A      4.828271   374A      4.849546   375A      4.857440  
     376A      4.874485   377A      4.883414   378A      4.889032  
     379A      4.896264   380A      4.912223   381A      4.935375  
     382A      4.938326   383A      4.946838   384A      4.956625  
     385A      4.968863   386A      4.974913   387A      4.993454  
     388A      5.010206   389A      5.015189   390A      5.032393  
     391A      5.061669   392A      5.074163   393A      5.086687  
     394A      5.118773   395A      5.142712   396A      5.161972  
     397A      5.165180   398A      5.178670   399A      5.202900  
     400A      5.212762   401A      5.217778   402A      5.230409  
     403A      5.243713   404A      5.275400   405A      5.287529  
     406A      5.305021   407A      5.315290   408A      5.324680  
     409A      5.336260   410A      5.345847   411A      5.353394  
     412A      5.365346   413A      5.401745   414A      5.434140  
     415A      5.451226   416A      5.466846   417A      5.486395  
     418A      5.553858   419A      5.561273   420A      5.639518  
     421A      5.663260   422A      5.677444   423A      5.688464  
     424A      5.701821   425A      5.707816   426A      5.725599  
     427A      5.764632   428A      5.767648   429A      5.781160  
     430A      5.786664   431A      5.793323   432A      5.815021  
     433A      5.842998   434A      5.867126   435A      5.922484  
     436A      5.936051   437A      5.937438   438A      5.952198  
     439A      5.999511   440A      6.010963   441A      6.044589  
     442A      6.057688   443A      6.078396   444A      6.117810  
     445A      6.217805   446A      6.235909   447A      6.276460  
     448A      6.328118   449A      6.353394   450A      6.370344  
     451A      6.405601   452A      6.439656   453A      6.460109  
     454A      6.470940   455A      6.485402   456A      6.509381  
     457A      6.523436   458A      6.551189   459A      6.649605  
     460A      6.691450   461A      6.743677   462A      6.784988  
     463A      6.819603   464A      6.938505   465A      7.025115  
     466A      7.112074   467A      7.319896   468A      7.410052  
     469A      7.471706   470A      7.538896   471A      7.582845  
     472A      7.648444   473A      7.699004   474A      7.708818  
     475A      7.740024   476A      7.822969   477A      7.875502  
     478A      7.906677   479A      7.985058   480A      8.053135  
     481A      8.156290   482A      8.301044   483A      8.369464  
     484A      8.608382   485A      8.850584   486A      9.439466  
     487A      9.652945   488A      9.765175   489A      9.898711  
     490A     10.222665   491A     14.302282   492A     14.736987  
     493A     41.018806   494A     44.076885   495A     45.556351  
     496A     45.938408   497A     47.233958  

    Final Occupation by Irrep:
              A 
    DOCC [     9 ]

  @DF-RHF Final Energy:   -79.26014167625623

   => Energetics <=

    Nuclear Repulsion Energy =             42.3355548167358506
    One-Electron Energy =                -189.2765836122316614
    Two-Electron Energy =                  67.6808871192395856
    Total Energy =                        -79.2601416762562252

Computation Completed


Properties will be evaluated at   0.000000,   0.000000,   0.000000 [a0]

Properties computed using the SCF density matrix

  Nuclear Dipole Moment: [e a0]
     X:    84.7258      Y:   -21.2628      Z:     0.1858

  Electronic Dipole Moment: [e a0]
     X:   -84.7251      Y:    21.2627      Z:    -0.1859

  Dipole Moment: [e a0]
     X:     0.0007      Y:    -0.0000      Z:    -0.0001     Total:     0.0007

  Dipole Moment: [D]
     X:     0.0017      Y:    -0.0001      Z:    -0.0002     Total:     0.0017


*** tstop() called on r282 at Fri Sep 10 21:25:33 2021
Module time:
	user time   =      25.03 seconds =       0.42 minutes
	system time =       0.52 seconds =       0.01 minutes
	total time  =         25 seconds =       0.42 minutes
Total time:
	user time   =     125.71 seconds =       2.10 minutes
	system time =       2.63 seconds =       0.04 minutes
	total time  =        128 seconds =       2.13 minutes
  Constructing Basis Sets for SAPT...

   => Loading Basis Set <=

    Name: (JUN-CC-PVTZ AUX)
    Role: RIFIT
    Keyword: DF_BASIS_SAPT
    atoms 1-5, 16-17  entry C          line   132 file /home/r08543048/miniconda3/share/psi4/basis/jun-cc-pvtz-ri.gbs 
    atoms 6-15, 18-23 entry H          line    30 file /home/r08543048/miniconda3/share/psi4/basis/jun-cc-pvtz-ri.gbs 


  //>>>>>>>>>>>>>>>>>>>>>>>>>>>>>>>>>>>//
  //               SAPT0               //
  //<<<<<<<<<<<<<<<<<<<<<<<<<<<<<<<<<<<//


*** tstart() called on r282
*** at Fri Sep 10 21:25:34 2021

        SAPT0  
    Ed Hohenstein
     6 June 2009

      Orbital Information
  --------------------------
    NSO        =       497
    NMO        =       497
    NRI        =      1159
    NOCC A     =        20
    NOCC B     =         9
    FOCC A     =         0
    FOCC B     =         0
    NVIR A     =       477
    NVIR B     =       488

    Elst10,r            =    -0.001950902728 [Eh]
    Exch10              =     0.005458156676 [Eh]
    Exch10 (S^2)        =     0.005447787675 [Eh]

    Iter     Energy [mEh]          dE [mEh]         Residual      Time [s]
       1      -0.50976980       0.509769804       2.822853553             1
       2      -0.62972974       0.119959933       0.536605056             2
       3      -0.62858799      -0.001141749       0.233541211             3
       4      -0.62690717      -0.001680822       0.062453437             4
       5      -0.62698261       0.000075444       0.023009684             5
       6      -0.62713432       0.000151706       0.006181242             6
       7      -0.62711831      -0.000016004       0.002686189             7
       8      -0.62710763      -0.000010682       0.000720482             8
       9      -0.62711038       0.000002753       0.000195283             9
      10      -0.62711075       0.000000363       0.000055676            10
      11      -0.62711058      -0.000000169       0.000013951            11
      12      -0.62711057      -0.000000008       0.000003443            12
      13      -0.62711058       0.000000010       0.000000896            13

    CHF Iterations converged


    Iter     Energy [mEh]          dE [mEh]         Residual      Time [s]
       1      -0.34486730       0.344867298       2.511962446             1
       2      -0.42297698       0.078109681       0.489958935             1
       3      -0.42243014      -0.000546842       0.171092913             2
       4      -0.42135378      -0.001076353       0.038607901             3
       5      -0.42143647       0.000082689       0.008567820             4
       6      -0.42147859       0.000042118       0.001375172             5
       7      -0.42147245      -0.000006137       0.000265554             6
       8      -0.42147264       0.000000188       0.000080525             6
       9      -0.42147282       0.000000178       0.000017388             7
      10      -0.42147281      -0.000000016       0.000002946             8
      11      -0.42147280      -0.000000004       0.000000442             9

    CHF Iterations converged

    Ind20,r (A<-B)      =    -0.000627110580 [Eh]
    Ind20,r (B<-A)      =    -0.000421472802 [Eh]
    Ind20,r             =    -0.001048583382 [Eh]
    Exch-Ind20,r (A<-B) =     0.000580774712 [Eh]
    Exch-Ind20,r (B<-A) =     0.000324837169 [Eh]
    Exch-Ind20,r        =     0.000905611881 [Eh]
    Disp20              =    -0.006993704828 [Eh]
    Disp20 (SS)         =    -0.003496852414 [Eh]
    Disp20 (OS)         =    -0.003496852414 [Eh]
    Exch-Disp20         =     0.000616417265 [Eh]
    Exch-Disp20 (SS)    =     0.000406533286 [Eh]
    Exch-Disp20 (OS)    =     0.000209883979 [Eh]

    SAPT Results 
  --------------------------------------------------------------------------------------------------------
    Electrostatics                 -1.95090273 [mEh]      -1.22420994 [kcal/mol]      -5.12209441 [kJ/mol]
      Elst10,r                     -1.95090273 [mEh]      -1.22420994 [kcal/mol]      -5.12209441 [kJ/mol]

    Exchange                        5.45815668 [mEh]       3.42504502 [kcal/mol]      14.33038838 [kJ/mol]
      Exch10                        5.45815668 [mEh]       3.42504502 [kcal/mol]      14.33038838 [kJ/mol]
      Exch10(S^2)                   5.44778768 [mEh]       3.41853838 [kcal/mol]      14.30316457 [kJ/mol]

    Induction                      -0.54509113 [mEh]      -0.34204985 [kcal/mol]      -1.43113658 [kJ/mol]
      Ind20,r                      -1.04858338 [mEh]      -0.65799601 [kcal/mol]      -2.75305529 [kJ/mol]
      Exch-Ind20,r                  0.90561188 [mEh]       0.56828004 [kcal/mol]       2.37768367 [kJ/mol]
      delta HF,r (2)               -0.40211963 [mEh]      -0.25233388 [kcal/mol]      -1.05576495 [kJ/mol]

    Dispersion                     -6.37728756 [mEh]      -4.00180836 [kcal/mol]     -16.74356619 [kJ/mol]
      Disp20                       -6.99370483 [mEh]      -4.38861604 [kcal/mol]     -18.36196950 [kJ/mol]
      Exch-Disp20                   0.61641726 [mEh]       0.38680767 [kcal/mol]       1.61840331 [kJ/mol]
      Disp20 (SS)                  -3.49685241 [mEh]      -2.19430802 [kcal/mol]      -9.18098475 [kJ/mol]
      Disp20 (OS)                  -3.49685241 [mEh]      -2.19430802 [kcal/mol]      -9.18098475 [kJ/mol]
      Exch-Disp20 (SS)              0.40653329 [mEh]       0.25510349 [kcal/mol]       1.06735300 [kJ/mol]
      Exch-Disp20 (OS)              0.20988398 [mEh]       0.13170419 [kcal/mol]       0.55105031 [kJ/mol]

  Total HF                          2.96216281 [mEh]       1.85878523 [kcal/mol]       7.77715740 [kJ/mol]
  Total SAPT0                      -3.41512475 [mEh]      -2.14302313 [kcal/mol]      -8.96640879 [kJ/mol]

  Special recipe for scaled SAPT0 (see Manual):
    Electrostatics sSAPT0          -1.95090273 [mEh]      -1.22420994 [kcal/mol]      -5.12209441 [kJ/mol]
    Exchange sSAPT0                 5.45815668 [mEh]       3.42504502 [kcal/mol]      14.33038838 [kJ/mol]
    Induction sSAPT0               -0.53991022 [mEh]      -0.33879878 [kcal/mol]      -1.41753409 [kJ/mol]
    Dispersion sSAPT0              -6.37376110 [mEh]      -3.99959547 [kcal/mol]     -16.73430747 [kJ/mol]
  Total sSAPT0                     -3.40641737 [mEh]      -2.13755917 [kcal/mol]      -8.94354758 [kJ/mol]
  --------------------------------------------------------------------------------------------------------

*** tstop() called on r282 at Fri Sep 10 21:27:21 2021
Module time:
	user time   =      91.96 seconds =       1.53 minutes
	system time =      15.21 seconds =       0.25 minutes
	total time  =        107 seconds =       1.78 minutes
Total time:
	user time   =     217.82 seconds =       3.63 minutes
	system time =      17.84 seconds =       0.30 minutes
	total time  =        236 seconds =       3.93 minutes

    Psi4 stopped on: Friday, 10 September 2021 09:27PM
    Psi4 wall time for execution: 0:03:55.98

*** Psi4 exiting successfully. Buy a developer a beer!
