
    -----------------------------------------------------------------------
          Psi4: An Open-Source Ab Initio Electronic Structure Package
                               Psi4 1.3.2 release

                         Git: Rev {HEAD} ecbda83 


    R. M. Parrish, L. A. Burns, D. G. A. Smith, A. C. Simmonett,
    A. E. DePrince III, E. G. Hohenstein, U. Bozkaya, A. Yu. Sokolov,
    R. Di Remigio, R. M. Richard, J. F. Gonthier, A. M. James,
    H. R. McAlexander, A. Kumar, M. Saitow, X. Wang, B. P. Pritchard,
    P. Verma, H. F. Schaefer III, K. Patkowski, R. A. King, E. F. Valeev,
    F. A. Evangelista, J. M. Turney, T. D. Crawford, and C. D. Sherrill,
    J. Chem. Theory Comput. 13(7) pp 3185--3197 (2017).
    (doi: 10.1021/acs.jctc.7b00174)


                         Additional Contributions by
    P. Kraus, H. Kruse, M. H. Lechner, M. C. Schieber, R. A. Shaw,
    A. Alenaizan, R. Galvelis, Z. L. Glick, S. Lehtola, and J. P. Misiewicz

    -----------------------------------------------------------------------


    Psi4 started on: Friday, 10 September 2021 09:58PM

    Process ID: 57228
    Host:       r282
    PSIDATADIR: /home/r08543048/miniconda3/share/psi4
    Memory:     500.0 MiB
    Threads:    1
    
  ==> Input File <==

--------------------------------------------------------------------------
# Any line starting with the # character is a comment line
#! Sample  computation

memory 22 gb

molecule Dimer {
0 1
 C  -2.118677    1.090643   -0.190133
 C  -1.723921   -0.339646   -0.535033
 C  -1.422675   -1.158205    0.713774
 H  -3.008592    1.103947    0.440965
 H  -1.313557    1.585186    0.354791
 H  -2.331806    1.677291   -1.083630
 H  -0.845379   -0.325909   -1.183837
 H  -2.524915   -0.816666   -1.103993
 H  -1.148263   -2.184695    0.469981
 H  -0.598894   -0.710627    1.271839
 H  -2.292677   -1.191329    1.371451



 






 --
0 1
 C 1.736938    1.250047    0.625137
 C 1.838565    0.409972   -0.408329
 C 2.097852   -1.056798   -0.283829
 H 1.550510    2.304407    0.476578
 H 1.842661    0.896938    1.643485
 H 1.728077    0.805807   -1.412984
 H 3.014745   -1.335447   -0.805523
 H 2.192860   -1.349781    0.761033
 H 1.286745   -1.635209   -0.729679

units angstrom

no_reorient
symmetry c1
}

set globals{
  basis jun-cc-pvtz
}

energy('sapt0')


--------------------------------------------------------------------------

  Memory set to  20.489 GiB by Python driver.

  //>>>>>>>>>>>>>>>>>>>>>>>>>>>>>>>>>>>//
  //              Dimer HF             //
  //<<<<<<<<<<<<<<<<<<<<<<<<<<<<<<<<<<<//


*** tstart() called on r282
*** at Fri Sep 10 21:58:45 2021

   => Loading Basis Set <=

    Name: JUN-CC-PVTZ
    Role: ORBITAL
    Keyword: BASIS
    atoms 1-3, 12-14  entry C          line   217 file /home/r08543048/miniconda3/share/psi4/basis/jun-cc-pvtz.gbs 
    atoms 4-11, 15-20 entry H          line    36 file /home/r08543048/miniconda3/share/psi4/basis/jun-cc-pvtz.gbs 


         ---------------------------------------------------------
                                   SCF
               by Justin Turney, Rob Parrish, Andy Simmonett
                          and Daniel G. A. Smith
                              RHF Reference
                        1 Threads,  20980 MiB Core
         ---------------------------------------------------------

  ==> Geometry <==

    Molecular point group: c1
    Full point group: C1

    Geometry (in Angstrom), charge = 0, multiplicity = 1:

       Center              X                  Y                   Z               Mass       
    ------------   -----------------  -----------------  -----------------  -----------------
         C           -2.146889196130     1.077092051526    -0.184712027531    12.000000000000
         C           -1.752133196130    -0.353196948474    -0.529612027531    12.000000000000
         C           -1.450887196130    -1.171755948474     0.719194972469    12.000000000000
         H           -3.036804196130     1.090396051526     0.446385972469     1.007825032230
         H           -1.341769196130     1.571635051526     0.360211972469     1.007825032230
         H           -2.360018196130     1.663740051526    -1.078209027531     1.007825032230
         H           -0.873591196130    -0.339459948474    -1.178416027531     1.007825032230
         H           -2.553127196130    -0.830216948474    -1.098572027531     1.007825032230
         H           -1.176475196130    -2.198245948474     0.475401972469     1.007825032230
         H           -0.627106196130    -0.724177948474     1.277259972469     1.007825032230
         H           -2.320889196130    -1.204879948474     1.376871972469     1.007825032230
         C            1.708725803870     1.236496051526     0.630557972469    12.000000000000
         C            1.810352803870     0.396421051526    -0.402908027531    12.000000000000
         C            2.069639803870    -1.070348948474    -0.278408027531    12.000000000000
         H            1.522297803870     2.290856051526     0.481998972469     1.007825032230
         H            1.814448803870     0.883387051526     1.648905972469     1.007825032230
         H            1.699864803870     0.792256051526    -1.407563027531     1.007825032230
         H            2.986532803870    -1.348997948474    -0.800102027531     1.007825032230
         H            2.164647803870    -1.363331948474     0.766453972469     1.007825032230
         H            1.258532803870    -1.648759948474    -0.724258027531     1.007825032230

  Running in c1 symmetry.

  Rotational constants: A =      0.13445  B =      0.05098  C =      0.04306 [cm^-1]
  Rotational constants: A =   4030.69927  B =   1528.36743  C =   1290.83461 [MHz]
  Nuclear repulsion =  236.031237412591395

  Charge       = 0
  Multiplicity = 1
  Electrons    = 50
  Nalpha       = 25
  Nbeta        = 25

  ==> Algorithm <==

  SCF Algorithm Type is DF.
  DIIS enabled.
  MOM disabled.
  Fractional occupation disabled.
  Guess Type is SAD.
  Energy threshold   = 1.00e-08
  Density threshold  = 1.00e-08
  Integral threshold = 0.00e+00

  ==> Primary Basis <==

  Basis Set: JUN-CC-PVTZ
    Blend: JUN-CC-PVTZ
    Number of shells: 162
    Number of basis function: 430
    Number of Cartesian functions: 480
    Spherical Harmonics?: true
    Max angular momentum: 3

   => Loading Basis Set <=

    Name: (JUN-CC-PVTZ AUX)
    Role: JKFIT
    Keyword: DF_BASIS_SCF
    atoms 1-3, 12-14  entry C          line   152 file /home/r08543048/miniconda3/share/psi4/basis/jun-cc-pvtz-jkfit.gbs 
    atoms 4-11, 15-20 entry H          line    70 file /home/r08543048/miniconda3/share/psi4/basis/jun-cc-pvtz-jkfit.gbs 

  ==> Pre-Iterations <==

   -------------------------------------------------------
    Irrep   Nso     Nmo     Nalpha   Nbeta   Ndocc  Nsocc
   -------------------------------------------------------
     A        430     430       0       0       0       0
   -------------------------------------------------------
    Total     430     430      25      25      25       0
   -------------------------------------------------------

  ==> Integral Setup <==

  ==> DiskDFJK: Density-Fitted J/K Matrices <==

    J tasked:                  Yes
    K tasked:                  Yes
    wK tasked:                  No
    OpenMP threads:              1
    Integrals threads:           1
    Memory [MiB]:            15735
    Algorithm:                Core
    Integral Cache:           SAVE
    Schwarz Cutoff:          1E-12
    Fitting Condition:       1E-10

   => Auxiliary Basis Set <=

  Basis Set: (JUN-CC-PVTZ AUX)
    Blend: JUN-CC-PVTZ-JKFIT
    Number of shells: 314
    Number of basis function: 990
    Number of Cartesian functions: 1186
    Spherical Harmonics?: true
    Max angular momentum: 4

  Minimum eigenvalue in the overlap matrix is 3.9675268214E-05.
  Using Symmetric Orthogonalization.

  SCF Guess: Superposition of Atomic Densities via on-the-fly atomic UHF.

  ==> Iterations <==

                           Total Energy        Delta E     RMS |[F,P]|

   @DF-RHF iter SAD:  -234.19600115927727   -2.34196e+02   0.00000e+00 
   @DF-RHF iter   1:  -235.13171476151575   -9.35714e-01   1.59842e-03 DIIS
   @DF-RHF iter   2:  -235.36721884965411   -2.35504e-01   7.31923e-04 DIIS
   @DF-RHF iter   3:  -235.41836395514517   -5.11451e-02   1.30420e-04 DIIS
   @DF-RHF iter   4:  -235.42160807948230   -3.24412e-03   3.40483e-05 DIIS
   @DF-RHF iter   5:  -235.42176406550320   -1.55986e-04   9.59541e-06 DIIS
   @DF-RHF iter   6:  -235.42177710013186   -1.30346e-05   2.22488e-06 DIIS
   @DF-RHF iter   7:  -235.42177795559414   -8.55462e-07   7.34740e-07 DIIS
   @DF-RHF iter   8:  -235.42177804501915   -8.94250e-08   2.18367e-07 DIIS
   @DF-RHF iter   9:  -235.42177805811480   -1.30956e-08   9.12691e-08 DIIS
   @DF-RHF iter  10:  -235.42177806065413   -2.53934e-09   2.28274e-08 DIIS
   @DF-RHF iter  11:  -235.42177806079505   -1.40915e-10   6.00664e-09 DIIS
  Energy and wave function converged.


  ==> Post-Iterations <==

    Orbital Energies [Eh]
    ---------------------

    Doubly Occupied:                                                      

       1A    -11.235012     2A    -11.221047     3A    -11.218106  
       4A    -11.211528     5A    -11.203765     6A    -11.202634  
       7A     -1.066576     8A     -1.049870     9A     -0.934141  
      10A     -0.920276    11A     -0.795986    12A     -0.759270  
      13A     -0.641364    14A     -0.623374    15A     -0.595347  
      16A     -0.583809    17A     -0.567714    18A     -0.544690  
      19A     -0.525377    20A     -0.523892    21A     -0.494022  
      22A     -0.471596    23A     -0.470848    24A     -0.464347  
      25A     -0.358915  

    Virtual:                                                              

      26A      0.051780    27A      0.053409    28A      0.056056  
      29A      0.062589    30A      0.072778    31A      0.075150  
      32A      0.088026    33A      0.092230    34A      0.093306  
      35A      0.114782    36A      0.116193    37A      0.118863  
      38A      0.119562    39A      0.126120    40A      0.133380  
      41A      0.142804    42A      0.149737    43A      0.155351  
      44A      0.162051    45A      0.183719    46A      0.189003  
      47A      0.192164    48A      0.196524    49A      0.216129  
      50A      0.227041    51A      0.255214    52A      0.261902  
      53A      0.273340    54A      0.277926    55A      0.286092  
      56A      0.294503    57A      0.300174    58A      0.304048  
      59A      0.314726    60A      0.321640    61A      0.329842  
      62A      0.333301    63A      0.338362    64A      0.339321  
      65A      0.344060    66A      0.347316    67A      0.355791  
      68A      0.361249    69A      0.361664    70A      0.367749  
      71A      0.378093    72A      0.380820    73A      0.392051  
      74A      0.397795    75A      0.401269    76A      0.411815  
      77A      0.416133    78A      0.432734    79A      0.439450  
      80A      0.450319    81A      0.454711    82A      0.462533  
      83A      0.469836    84A      0.489098    85A      0.507647  
      86A      0.509853    87A      0.520648    88A      0.525500  
      89A      0.530579    90A      0.539891    91A      0.544332  
      92A      0.545659    93A      0.568914    94A      0.570077  
      95A      0.588275    96A      0.594208    97A      0.603029  
      98A      0.611953    99A      0.651235   100A      0.671454  
     101A      0.676686   102A      0.695884   103A      0.706055  
     104A      0.714361   105A      0.730641   106A      0.736412  
     107A      0.745070   108A      0.750745   109A      0.760284  
     110A      0.765356   111A      0.777073   112A      0.786411  
     113A      0.795887   114A      0.800265   115A      0.804232  
     116A      0.815978   117A      0.819296   118A      0.829628  
     119A      0.831868   120A      0.853153   121A      0.857472  
     122A      0.863991   123A      0.871546   124A      0.889358  
     125A      0.911391   126A      0.917131   127A      0.926230  
     128A      0.937349   129A      0.947439   130A      0.965026  
     131A      0.982613   132A      0.991998   133A      1.007660  
     134A      1.010509   135A      1.029837   136A      1.036084  
     137A      1.049751   138A      1.093387   139A      1.105909  
     140A      1.111936   141A      1.119901   142A      1.138400  
     143A      1.150108   144A      1.162929   145A      1.187682  
     146A      1.198757   147A      1.213497   148A      1.221318  
     149A      1.252116   150A      1.259681   151A      1.264495  
     152A      1.288660   153A      1.294841   154A      1.329071  
     155A      1.343997   156A      1.352433   157A      1.368007  
     158A      1.373754   159A      1.383267   160A      1.390866  
     161A      1.404999   162A      1.409309   163A      1.418353  
     164A      1.430165   165A      1.448278   166A      1.457753  
     167A      1.467777   168A      1.487443   169A      1.498944  
     170A      1.500039   171A      1.525409   172A      1.527423  
     173A      1.539143   174A      1.562410   175A      1.571174  
     176A      1.579053   177A      1.591418   178A      1.596819  
     179A      1.599777   180A      1.622423   181A      1.638385  
     182A      1.644061   183A      1.652130   184A      1.666466  
     185A      1.676258   186A      1.683731   187A      1.686624  
     188A      1.720826   189A      1.727286   190A      1.745956  
     191A      1.754314   192A      1.793958   193A      1.804830  
     194A      1.842409   195A      1.847417   196A      1.855816  
     197A      1.860388   198A      1.890199   199A      1.895198  
     200A      1.934153   201A      1.949769   202A      1.959375  
     203A      1.971884   204A      1.984757   205A      2.048351  
     206A      2.074623   207A      2.101132   208A      2.221073  
     209A      2.690697   210A      2.711667   211A      2.754335  
     212A      2.757532   213A      2.765055   214A      2.773166  
     215A      2.789141   216A      2.800856   217A      2.828142  
     218A      2.830379   219A      2.854306   220A      2.855519  
     221A      2.874666   222A      2.904673   223A      2.918899  
     224A      2.921931   225A      2.933750   226A      2.939272  
     227A      2.961583   228A      2.989305   229A      2.999225  
     230A      3.039119   231A      3.048195   232A      3.065499  
     233A      3.080883   234A      3.088199   235A      3.099066  
     236A      3.109889   237A      3.117171   238A      3.137556  
     239A      3.159236   240A      3.161381   241A      3.176735  
     242A      3.194088   243A      3.202680   244A      3.229124  
     245A      3.230437   246A      3.246874   247A      3.269112  
     248A      3.286703   249A      3.299820   250A      3.305846  
     251A      3.314113   252A      3.320038   253A      3.329902  
     254A      3.336062   255A      3.349233   256A      3.363840  
     257A      3.378040   258A      3.389661   259A      3.398123  
     260A      3.401229   261A      3.408381   262A      3.425278  
     263A      3.438969   264A      3.452286   265A      3.460348  
     266A      3.481260   267A      3.488571   268A      3.495488  
     269A      3.501080   270A      3.505049   271A      3.513454  
     272A      3.526604   273A      3.532162   274A      3.546696  
     275A      3.556466   276A      3.564664   277A      3.580765  
     278A      3.594314   279A      3.606883   280A      3.624847  
     281A      3.640622   282A      3.652570   283A      3.673240  
     284A      3.686591   285A      3.722045   286A      3.725665  
     287A      3.748176   288A      3.757606   289A      3.761195  
     290A      3.777355   291A      3.789733   292A      3.802610  
     293A      3.814088   294A      3.819168   295A      3.840617  
     296A      3.848878   297A      3.862432   298A      3.868971  
     299A      3.880374   300A      3.917309   301A      3.936917  
     302A      3.959972   303A      3.965708   304A      3.976459  
     305A      3.981312   306A      3.982335   307A      4.012124  
     308A      4.046375   309A      4.079060   310A      4.086727  
     311A      4.115397   312A      4.125027   313A      4.146120  
     314A      4.159053   315A      4.203916   316A      4.205727  
     317A      4.215618   318A      4.231694   319A      4.241525  
     320A      4.263505   321A      4.294067   322A      4.302729  
     323A      4.317667   324A      4.318321   325A      4.332005  
     326A      4.335113   327A      4.350171   328A      4.369969  
     329A      4.374044   330A      4.377153   331A      4.392338  
     332A      4.405760   333A      4.411729   334A      4.423702  
     335A      4.428994   336A      4.441409   337A      4.451107  
     338A      4.481904   339A      4.492371   340A      4.505359  
     341A      4.511824   342A      4.522266   343A      4.541866  
     344A      4.548413   345A      4.557047   346A      4.569648  
     347A      4.585951   348A      4.605952   349A      4.637100  
     350A      4.654171   351A      4.664843   352A      4.688747  
     353A      4.695304   354A      4.701997   355A      4.720403  
     356A      4.761528   357A      4.789366   358A      4.806739  
     359A      4.819545   360A      4.826553   361A      4.846337  
     362A      4.865738   363A      4.884698   364A      4.913746  
     365A      4.920979   366A      4.996843   367A      5.001748  
     368A      5.032831   369A      5.038455   370A      5.075553  
     371A      5.140849   372A      5.173968   373A      5.185950  
     374A      5.203223   375A      5.211004   376A      5.218625  
     377A      5.268185   378A      5.279253   379A      5.284403  
     380A      5.296877   381A      5.312601   382A      5.326251  
     383A      5.336105   384A      5.359920   385A      5.387319  
     386A      5.402002   387A      5.427743   388A      5.450374  
     389A      5.482197   390A      5.484700   391A      5.521868  
     392A      5.564376   393A      5.589850   394A      5.613406  
     395A      5.630393   396A      5.688381   397A      5.691546  
     398A      5.732059   399A      5.752491   400A      5.764996  
     401A      5.772766   402A      5.784497   403A      5.793689  
     404A      5.802614   405A      5.818327   406A      5.826211  
     407A      5.858512   408A      5.929773   409A      5.932827  
     410A      5.961679   411A      5.967042   412A      5.997702  
     413A      6.097213   414A      6.112654   415A      6.400476  
     416A      6.449033   417A      6.462647   418A      6.485344  
     419A      6.523304   420A      6.530868   421A      6.543633  
     422A      6.561025   423A      6.594294   424A      6.705817  
     425A     12.302082   426A     13.853843   427A     14.468639  
     428A     14.639665   429A     14.714753   430A     15.369387  

    Final Occupation by Irrep:
              A 
    DOCC [    25 ]

  @DF-RHF Final Energy:  -235.42177806079505

   => Energetics <=

    Nuclear Repulsion Energy =            236.0312374125913948
    One-Electron Energy =                -783.5390125268108932
    Two-Electron Energy =                 312.0859970534244212
    Total Energy =                       -235.4217780607950772

Computation Completed


Properties will be evaluated at   0.000000,   0.000000,   0.000000 [a0]

Properties computed using the SCF density matrix

  Nuclear Dipole Moment: [e a0]
     X:    -2.6657      Y:    -1.2804      Z:     0.5122

  Electronic Dipole Moment: [e a0]
     X:     2.7256      Y:     1.1537      Z:    -0.6091

  Dipole Moment: [e a0]
     X:     0.0599      Y:    -0.1267      Z:    -0.0969     Total:     0.1704

  Dipole Moment: [D]
     X:     0.1522      Y:    -0.3219      Z:    -0.2464     Total:     0.4331


*** tstop() called on r282 at Fri Sep 10 21:59:21 2021
Module time:
	user time   =      35.00 seconds =       0.58 minutes
	system time =       0.95 seconds =       0.02 minutes
	total time  =         36 seconds =       0.60 minutes
Total time:
	user time   =      35.00 seconds =       0.58 minutes
	system time =       0.95 seconds =       0.02 minutes
	total time  =         36 seconds =       0.60 minutes

  //>>>>>>>>>>>>>>>>>>>>>>>>>>>>>>>>>>>//
  //            Monomer A HF           //
  //<<<<<<<<<<<<<<<<<<<<<<<<<<<<<<<<<<<//


*** tstart() called on r282
*** at Fri Sep 10 21:59:21 2021

   => Loading Basis Set <=

    Name: JUN-CC-PVTZ
    Role: ORBITAL
    Keyword: BASIS
    atoms 1-3, 12-14  entry C          line   217 file /home/r08543048/miniconda3/share/psi4/basis/jun-cc-pvtz.gbs 
    atoms 4-11, 15-20 entry H          line    36 file /home/r08543048/miniconda3/share/psi4/basis/jun-cc-pvtz.gbs 


         ---------------------------------------------------------
                                   SCF
               by Justin Turney, Rob Parrish, Andy Simmonett
                          and Daniel G. A. Smith
                              RHF Reference
                        1 Threads,  20980 MiB Core
         ---------------------------------------------------------

  ==> Geometry <==

    Molecular point group: c1
    Full point group: C1

    Geometry (in Angstrom), charge = 0, multiplicity = 1:

       Center              X                  Y                   Z               Mass       
    ------------   -----------------  -----------------  -----------------  -----------------
         C           -2.146889196130     1.077092051526    -0.184712027531    12.000000000000
         C           -1.752133196130    -0.353196948474    -0.529612027531    12.000000000000
         C           -1.450887196130    -1.171755948474     0.719194972469    12.000000000000
         H           -3.036804196130     1.090396051526     0.446385972469     1.007825032230
         H           -1.341769196130     1.571635051526     0.360211972469     1.007825032230
         H           -2.360018196130     1.663740051526    -1.078209027531     1.007825032230
         H           -0.873591196130    -0.339459948474    -1.178416027531     1.007825032230
         H           -2.553127196130    -0.830216948474    -1.098572027531     1.007825032230
         H           -1.176475196130    -2.198245948474     0.475401972469     1.007825032230
         H           -0.627106196130    -0.724177948474     1.277259972469     1.007825032230
         H           -2.320889196130    -1.204879948474     1.376871972469     1.007825032230
      Gh(C)           1.708725803870     1.236496051526     0.630557972469    12.000000000000
      Gh(C)           1.810352803870     0.396421051526    -0.402908027531    12.000000000000
      Gh(C)           2.069639803870    -1.070348948474    -0.278408027531    12.000000000000
      Gh(H)           1.522297803870     2.290856051526     0.481998972469     1.007825032230
      Gh(H)           1.814448803870     0.883387051526     1.648905972469     1.007825032230
      Gh(H)           1.699864803870     0.792256051526    -1.407563027531     1.007825032230
      Gh(H)           2.986532803870    -1.348997948474    -0.800102027531     1.007825032230
      Gh(H)           2.164647803870    -1.363331948474     0.766453972469     1.007825032230
      Gh(H)           1.258532803870    -1.648759948474    -0.724258027531     1.007825032230

  Running in c1 symmetry.

  Rotational constants: A =      0.13445  B =      0.05098  C =      0.04306 [cm^-1]
  Rotational constants: A =   4030.69927  B =   1528.36743  C =   1290.83461 [MHz]
  Nuclear repulsion =   82.863867573085912

  Charge       = 0
  Multiplicity = 1
  Electrons    = 26
  Nalpha       = 13
  Nbeta        = 13

  ==> Algorithm <==

  SCF Algorithm Type is DF.
  DIIS enabled.
  MOM disabled.
  Fractional occupation disabled.
  Guess Type is SAD.
  Energy threshold   = 1.00e-08
  Density threshold  = 1.00e-08
  Integral threshold = 0.00e+00

  ==> Primary Basis <==

  Basis Set: JUN-CC-PVTZ
    Blend: JUN-CC-PVTZ
    Number of shells: 162
    Number of basis function: 430
    Number of Cartesian functions: 480
    Spherical Harmonics?: true
    Max angular momentum: 3

   => Loading Basis Set <=

    Name: (JUN-CC-PVTZ AUX)
    Role: JKFIT
    Keyword: DF_BASIS_SCF
    atoms 1-3, 12-14  entry C          line   152 file /home/r08543048/miniconda3/share/psi4/basis/jun-cc-pvtz-jkfit.gbs 
    atoms 4-11, 15-20 entry H          line    70 file /home/r08543048/miniconda3/share/psi4/basis/jun-cc-pvtz-jkfit.gbs 

  ==> Pre-Iterations <==

   -------------------------------------------------------
    Irrep   Nso     Nmo     Nalpha   Nbeta   Ndocc  Nsocc
   -------------------------------------------------------
     A        430     430       0       0       0       0
   -------------------------------------------------------
    Total     430     430      13      13      13       0
   -------------------------------------------------------

  ==> Integral Setup <==

  ==> DiskDFJK: Density-Fitted J/K Matrices <==

    J tasked:                  Yes
    K tasked:                  Yes
    wK tasked:                  No
    OpenMP threads:              1
    Integrals threads:           1
    Memory [MiB]:            15735
    Algorithm:                Core
    Integral Cache:           LOAD
    Schwarz Cutoff:          1E-12
    Fitting Condition:       1E-10

   => Auxiliary Basis Set <=

  Basis Set: (JUN-CC-PVTZ AUX)
    Blend: JUN-CC-PVTZ-JKFIT
    Number of shells: 314
    Number of basis function: 990
    Number of Cartesian functions: 1186
    Spherical Harmonics?: true
    Max angular momentum: 4

  Minimum eigenvalue in the overlap matrix is 3.9675268214E-05.
  Using Symmetric Orthogonalization.

  SCF Guess: Superposition of Atomic Densities via on-the-fly atomic UHF.

  ==> Iterations <==

                           Total Energy        Delta E     RMS |[F,P]|

   @DF-RHF iter SAD:  -117.72920779765869   -1.17729e+02   0.00000e+00 
   @DF-RHF iter   1:  -118.14612873100376   -4.16921e-01   1.19953e-03 DIIS
   @DF-RHF iter   2:  -118.27562479442832   -1.29496e-01   5.67762e-04 DIIS
   @DF-RHF iter   3:  -118.30611542102076   -3.04906e-02   9.53408e-05 DIIS
   @DF-RHF iter   4:  -118.30796813210074   -1.85271e-03   1.87898e-05 DIIS
   @DF-RHF iter   5:  -118.30802646628696   -5.83342e-05   5.28644e-06 DIIS
   @DF-RHF iter   6:  -118.30803109219184   -4.62590e-06   9.51254e-07 DIIS
   @DF-RHF iter   7:  -118.30803126461939   -1.72428e-07   1.79439e-07 DIIS
   @DF-RHF iter   8:  -118.30803127219066   -7.57127e-09   3.15446e-08 DIIS
   @DF-RHF iter   9:  -118.30803127242791   -2.37250e-10   6.22855e-09 DIIS
  Energy and wave function converged.


  ==> Post-Iterations <==

    Orbital Energies [Eh]
    ---------------------

    Doubly Occupied:                                                      

       1A    -11.215439     2A    -11.207840     3A    -11.207746  
       4A     -1.054418     5A     -0.924541     6A     -0.799520  
       7A     -0.625426     8A     -0.598558     9A     -0.548716  
      10A     -0.530463    11A     -0.475265    12A     -0.474736  
      13A     -0.468370  

    Virtual:                                                              

      14A      0.034931    15A      0.047587    16A      0.052763  
      17A      0.057731    18A      0.069749    19A      0.074410  
      20A      0.084297    21A      0.090041    22A      0.091701  
      23A      0.107992    24A      0.113060    25A      0.116243  
      26A      0.118409    27A      0.124995    28A      0.125723  
      29A      0.136209    30A      0.143283    31A      0.151359  
      32A      0.155234    33A      0.160048    34A      0.171174  
      35A      0.180438    36A      0.199526    37A      0.210365  
      38A      0.237881    39A      0.245289    40A      0.257494  
      41A      0.263912    42A      0.274427    43A      0.289042  
      44A      0.290711    45A      0.297537    46A      0.312086  
      47A      0.315277    48A      0.317507    49A      0.327596  
      50A      0.330646    51A      0.338509    52A      0.340563  
      53A      0.345573    54A      0.353617    55A      0.363306  
      56A      0.364650    57A      0.369628    58A      0.377589  
      59A      0.379439    60A      0.392660    61A      0.392990  
      62A      0.406400    63A      0.411454    64A      0.416624  
      65A      0.424413    66A      0.433782    67A      0.441278  
      68A      0.445088    69A      0.452816    70A      0.466937  
      71A      0.480675    72A      0.492055    73A      0.503454  
      74A      0.510475    75A      0.521230    76A      0.534360  
      77A      0.538999    78A      0.547769    79A      0.551477  
      80A      0.563049    81A      0.567029    82A      0.584022  
      83A      0.586444    84A      0.595711    85A      0.606716  
      86A      0.616736    87A      0.621396    88A      0.643655  
      89A      0.651602    90A      0.669316    91A      0.678400  
      92A      0.679839    93A      0.687643    94A      0.701525  
      95A      0.710214    96A      0.738796    97A      0.751595  
      98A      0.777383    99A      0.786259   100A      0.796072  
     101A      0.797114   102A      0.800893   103A      0.809107  
     104A      0.814572   105A      0.825260   106A      0.839730  
     107A      0.856291   108A      0.880378   109A      0.884289  
     110A      0.896913   111A      0.899133   112A      0.931651  
     113A      0.968479   114A      0.983068   115A      0.995302  
     116A      1.004580   117A      1.013370   118A      1.038530  
     119A      1.079771   120A      1.096407   121A      1.100984  
     122A      1.112929   123A      1.132482   124A      1.153953  
     125A      1.168382   126A      1.176487   127A      1.182855  
     128A      1.202204   129A      1.212877   130A      1.217155  
     131A      1.224745   132A      1.246376   133A      1.273980  
     134A      1.282992   135A      1.289619   136A      1.303114  
     137A      1.306706   138A      1.324077   139A      1.332219  
     140A      1.342903   141A      1.351072   142A      1.356915  
     143A      1.358710   144A      1.373064   145A      1.383478  
     146A      1.404313   147A      1.416637   148A      1.423034  
     149A      1.434775   150A      1.447498   151A      1.454691  
     152A      1.466866   153A      1.478903   154A      1.490871  
     155A      1.497152   156A      1.518905   157A      1.524296  
     158A      1.526104   159A      1.532659   160A      1.540970  
     161A      1.561174   162A      1.568982   163A      1.576253  
     164A      1.589284   165A      1.599441   166A      1.604648  
     167A      1.619113   168A      1.624548   169A      1.632851  
     170A      1.652121   171A      1.661229   172A      1.668907  
     173A      1.686226   174A      1.692207   175A      1.699117  
     176A      1.713885   177A      1.736250   178A      1.768376  
     179A      1.788621   180A      1.794634   181A      1.822171  
     182A      1.826379   183A      1.838514   184A      1.871839  
     185A      1.891815   186A      1.894046   187A      1.947931  
     188A      1.961688   189A      1.966159   190A      1.982130  
     191A      2.012696   192A      2.023624   193A      2.068536  
     194A      2.076104   195A      2.107550   196A      2.121269  
     197A      2.235726   198A      2.261293   199A      2.353303  
     200A      2.379845   201A      2.447467   202A      2.525121  
     203A      2.541794   204A      2.679064   205A      2.750306  
     206A      2.764849   207A      2.782222   208A      2.827410  
     209A      2.842007   210A      2.875195   211A      2.902174  
     212A      2.917509   213A      2.931513   214A      2.956231  
     215A      2.971972   216A      2.995267   217A      3.030642  
     218A      3.090972   219A      3.102219   220A      3.135319  
     221A      3.164009   222A      3.168343   223A      3.202573  
     224A      3.259680   225A      3.280908   226A      3.290413  
     227A      3.311843   228A      3.322731   229A      3.371234  
     230A      3.380397   231A      3.389919   232A      3.418705  
     233A      3.436403   234A      3.439910   235A      3.460363  
     236A      3.469579   237A      3.482149   238A      3.489517  
     239A      3.499308   240A      3.515009   241A      3.522849  
     242A      3.533420   243A      3.544689   244A      3.578093  
     245A      3.592296   246A      3.592996   247A      3.607405  
     248A      3.610330   249A      3.625176   250A      3.626326  
     251A      3.669486   252A      3.670534   253A      3.699319  
     254A      3.706305   255A      3.723799   256A      3.733398  
     257A      3.741438   258A      3.763292   259A      3.780980  
     260A      3.790817   261A      3.803345   262A      3.811201  
     263A      3.833168   264A      3.841866   265A      3.856626  
     266A      3.870825   267A      3.873094   268A      3.894774  
     269A      3.928649   270A      3.943628   271A      3.952686  
     272A      3.960084   273A      3.966111   274A      3.978449  
     275A      3.984054   276A      4.037835   277A      4.056356  
     278A      4.076045   279A      4.093868   280A      4.097748  
     281A      4.117237   282A      4.128876   283A      4.139940  
     284A      4.182102   285A      4.198717   286A      4.205287  
     287A      4.211070   288A      4.219285   289A      4.221776  
     290A      4.238852   291A      4.255981   292A      4.269679  
     293A      4.293443   294A      4.309178   295A      4.312199  
     296A      4.334240   297A      4.339604   298A      4.355781  
     299A      4.365396   300A      4.369392   301A      4.388196  
     302A      4.404918   303A      4.427328   304A      4.429888  
     305A      4.440533   306A      4.463876   307A      4.473248  
     308A      4.479605   309A      4.497154   310A      4.507222  
     311A      4.520947   312A      4.529112   313A      4.542742  
     314A      4.553123   315A      4.555136   316A      4.567888  
     317A      4.574751   318A      4.600911   319A      4.618906  
     320A      4.628566   321A      4.638991   322A      4.652232  
     323A      4.668238   324A      4.673697   325A      4.698015  
     326A      4.701628   327A      4.726675   328A      4.736385  
     329A      4.751141   330A      4.784975   331A      4.801643  
     332A      4.806883   333A      4.818037   334A      4.824904  
     335A      4.836629   336A      4.845920   337A      4.853568  
     338A      4.866155   339A      4.884198   340A      4.893590  
     341A      4.922576   342A      4.940913   343A      4.949621  
     344A      4.960321   345A      4.985876   346A      4.998159  
     347A      5.002388   348A      5.006291   349A      5.034357  
     350A      5.049267   351A      5.084812   352A      5.099301  
     353A      5.138092   354A      5.169614   355A      5.174761  
     356A      5.177863   357A      5.200649   358A      5.242153  
     359A      5.269907   360A      5.277472   361A      5.282418  
     362A      5.296215   363A      5.322544   364A      5.340940  
     365A      5.395807   366A      5.406393   367A      5.431676  
     368A      5.475123   369A      5.495282   370A      5.516836  
     371A      5.532565   372A      5.541712   373A      5.564589  
     374A      5.588352   375A      5.612331   376A      5.672887  
     377A      5.726589   378A      5.751977   379A      5.768177  
     380A      5.778320   381A      5.788761   382A      5.801386  
     383A      5.817452   384A      5.823068   385A      5.855332  
     386A      5.898169   387A      5.929157   388A      5.937488  
     389A      5.962972   390A      5.989442   391A      6.017387  
     392A      6.031869   393A      6.101304   394A      6.128870  
     395A      6.152638   396A      6.251058   397A      6.278306  
     398A      6.333130   399A      6.389162   400A      6.393459  
     401A      6.471743   402A      6.520344   403A      6.537853  
     404A      6.558658   405A      6.581893   406A      6.617307  
     407A      6.721245   408A      6.769769   409A      6.848101  
     410A      7.095761   411A      7.392739   412A      7.434181  
     413A      7.568674   414A      7.604938   415A      7.649640  
     416A      7.814468   417A      7.914763   418A      7.981320  
     419A      8.112276   420A      8.299523   421A      8.734821  
     422A      9.404474   423A      9.891713   424A     10.209758  
     425A     13.856741   426A     14.465041   427A     14.695280  
     428A     40.993152   429A     45.894393   430A     47.251609  

    Final Occupation by Irrep:
              A 
    DOCC [    13 ]

  @DF-RHF Final Energy:  -118.30803127242791

   => Energetics <=

    Nuclear Repulsion Energy =             82.8638675730859120
    One-Electron Energy =                -322.0817184639985271
    Two-Electron Energy =                 120.9098196184847041
    Total Energy =                       -118.3080312724279111

Computation Completed


Properties will be evaluated at   0.000000,   0.000000,   0.000000 [a0]

Properties computed using the SCF density matrix

  Nuclear Dipole Moment: [e a0]
     X:   -87.6630      Y:    -6.9133      Z:     1.1530

  Electronic Dipole Moment: [e a0]
     X:    87.6649      Y:     6.9017      Z:    -1.1838

  Dipole Moment: [e a0]
     X:     0.0020      Y:    -0.0116      Z:    -0.0308     Total:     0.0330

  Dipole Moment: [D]
     X:     0.0051      Y:    -0.0294      Z:    -0.0783     Total:     0.0838


*** tstop() called on r282 at Fri Sep 10 21:59:37 2021
Module time:
	user time   =      15.26 seconds =       0.25 minutes
	system time =       0.39 seconds =       0.01 minutes
	total time  =         16 seconds =       0.27 minutes
Total time:
	user time   =      50.27 seconds =       0.84 minutes
	system time =       1.34 seconds =       0.02 minutes
	total time  =         52 seconds =       0.87 minutes

  //>>>>>>>>>>>>>>>>>>>>>>>>>>>>>>>>>>>//
  //            Monomer B HF           //
  //<<<<<<<<<<<<<<<<<<<<<<<<<<<<<<<<<<<//


*** tstart() called on r282
*** at Fri Sep 10 21:59:37 2021

   => Loading Basis Set <=

    Name: JUN-CC-PVTZ
    Role: ORBITAL
    Keyword: BASIS
    atoms 1-3, 12-14  entry C          line   217 file /home/r08543048/miniconda3/share/psi4/basis/jun-cc-pvtz.gbs 
    atoms 4-11, 15-20 entry H          line    36 file /home/r08543048/miniconda3/share/psi4/basis/jun-cc-pvtz.gbs 


         ---------------------------------------------------------
                                   SCF
               by Justin Turney, Rob Parrish, Andy Simmonett
                          and Daniel G. A. Smith
                              RHF Reference
                        1 Threads,  20980 MiB Core
         ---------------------------------------------------------

  ==> Geometry <==

    Molecular point group: c1
    Full point group: C1

    Geometry (in Angstrom), charge = 0, multiplicity = 1:

       Center              X                  Y                   Z               Mass       
    ------------   -----------------  -----------------  -----------------  -----------------
      Gh(C)          -2.146889196130     1.077092051526    -0.184712027531    12.000000000000
      Gh(C)          -1.752133196130    -0.353196948474    -0.529612027531    12.000000000000
      Gh(C)          -1.450887196130    -1.171755948474     0.719194972469    12.000000000000
      Gh(H)          -3.036804196130     1.090396051526     0.446385972469     1.007825032230
      Gh(H)          -1.341769196130     1.571635051526     0.360211972469     1.007825032230
      Gh(H)          -2.360018196130     1.663740051526    -1.078209027531     1.007825032230
      Gh(H)          -0.873591196130    -0.339459948474    -1.178416027531     1.007825032230
      Gh(H)          -2.553127196130    -0.830216948474    -1.098572027531     1.007825032230
      Gh(H)          -1.176475196130    -2.198245948474     0.475401972469     1.007825032230
      Gh(H)          -0.627106196130    -0.724177948474     1.277259972469     1.007825032230
      Gh(H)          -2.320889196130    -1.204879948474     1.376871972469     1.007825032230
         C            1.708725803870     1.236496051526     0.630557972469    12.000000000000
         C            1.810352803870     0.396421051526    -0.402908027531    12.000000000000
         C            2.069639803870    -1.070348948474    -0.278408027531    12.000000000000
         H            1.522297803870     2.290856051526     0.481998972469     1.007825032230
         H            1.814448803870     0.883387051526     1.648905972469     1.007825032230
         H            1.699864803870     0.792256051526    -1.407563027531     1.007825032230
         H            2.986532803870    -1.348997948474    -0.800102027531     1.007825032230
         H            2.164647803870    -1.363331948474     0.766453972469     1.007825032230
         H            1.258532803870    -1.648759948474    -0.724258027531     1.007825032230

  Running in c1 symmetry.

  Rotational constants: A =      0.13445  B =      0.05098  C =      0.04306 [cm^-1]
  Rotational constants: A =   4030.69927  B =   1528.36743  C =   1290.83461 [MHz]
  Nuclear repulsion =   70.866359143406498

  Charge       = 0
  Multiplicity = 1
  Electrons    = 24
  Nalpha       = 12
  Nbeta        = 12

  ==> Algorithm <==

  SCF Algorithm Type is DF.
  DIIS enabled.
  MOM disabled.
  Fractional occupation disabled.
  Guess Type is SAD.
  Energy threshold   = 1.00e-08
  Density threshold  = 1.00e-08
  Integral threshold = 0.00e+00

  ==> Primary Basis <==

  Basis Set: JUN-CC-PVTZ
    Blend: JUN-CC-PVTZ
    Number of shells: 162
    Number of basis function: 430
    Number of Cartesian functions: 480
    Spherical Harmonics?: true
    Max angular momentum: 3

   => Loading Basis Set <=

    Name: (JUN-CC-PVTZ AUX)
    Role: JKFIT
    Keyword: DF_BASIS_SCF
    atoms 1-3, 12-14  entry C          line   152 file /home/r08543048/miniconda3/share/psi4/basis/jun-cc-pvtz-jkfit.gbs 
    atoms 4-11, 15-20 entry H          line    70 file /home/r08543048/miniconda3/share/psi4/basis/jun-cc-pvtz-jkfit.gbs 

  ==> Pre-Iterations <==

   -------------------------------------------------------
    Irrep   Nso     Nmo     Nalpha   Nbeta   Ndocc  Nsocc
   -------------------------------------------------------
     A        430     430       0       0       0       0
   -------------------------------------------------------
    Total     430     430      12      12      12       0
   -------------------------------------------------------

  ==> Integral Setup <==

  ==> DiskDFJK: Density-Fitted J/K Matrices <==

    J tasked:                  Yes
    K tasked:                  Yes
    wK tasked:                  No
    OpenMP threads:              1
    Integrals threads:           1
    Memory [MiB]:            15735
    Algorithm:                Core
    Integral Cache:           LOAD
    Schwarz Cutoff:          1E-12
    Fitting Condition:       1E-10

   => Auxiliary Basis Set <=

  Basis Set: (JUN-CC-PVTZ AUX)
    Blend: JUN-CC-PVTZ-JKFIT
    Number of shells: 314
    Number of basis function: 990
    Number of Cartesian functions: 1186
    Spherical Harmonics?: true
    Max angular momentum: 4

  Minimum eigenvalue in the overlap matrix is 3.9675268214E-05.
  Using Symmetric Orthogonalization.

  SCF Guess: Superposition of Atomic Densities via on-the-fly atomic UHF.

  ==> Iterations <==

                           Total Energy        Delta E     RMS |[F,P]|

   @DF-RHF iter SAD:  -116.33321066401615   -1.16333e+02   0.00000e+00 
   @DF-RHF iter   1:  -116.98779427700615   -6.54584e-01   1.06643e-03 DIIS
   @DF-RHF iter   2:  -117.09546280926429   -1.07669e-01   4.57964e-04 DIIS
   @DF-RHF iter   3:  -117.11557065638391   -2.01078e-02   8.23358e-05 DIIS
   @DF-RHF iter   4:  -117.11686555228741   -1.29490e-03   2.48544e-05 DIIS
   @DF-RHF iter   5:  -117.11693992266410   -7.43704e-05   6.66106e-06 DIIS
   @DF-RHF iter   6:  -117.11694614176248   -6.21910e-06   1.20231e-06 DIIS
   @DF-RHF iter   7:  -117.11694645087633   -3.09114e-07   4.42013e-07 DIIS
   @DF-RHF iter   8:  -117.11694649180748   -4.09312e-08   1.53042e-07 DIIS
   @DF-RHF iter   9:  -117.11694649767739   -5.86991e-09   5.55874e-08 DIIS
   @DF-RHF iter  10:  -117.11694649862126   -9.43871e-10   1.26020e-08 DIIS
   @DF-RHF iter  11:  -117.11694649866371   -4.24478e-11   2.22523e-09 DIIS
  Energy and wave function converged.


  ==> Post-Iterations <==

    Orbital Energies [Eh]
    ---------------------

    Doubly Occupied:                                                      

       1A    -11.234354     2A    -11.220820     3A    -11.217497  
       4A     -1.064880     5A     -0.932931     6A     -0.758073  
       7A     -0.639847     8A     -0.582771     9A     -0.568696  
      10A     -0.523164    11A     -0.492990    12A     -0.358018  

    Virtual:                                                              

      13A      0.035355    14A      0.047824    15A      0.051534  
      16A      0.058646    17A      0.069659    18A      0.073067  
      19A      0.086021    20A      0.088383    21A      0.091363  
      22A      0.108384    23A      0.113384    24A      0.114609  
      25A      0.117824    26A      0.118611    27A      0.126307  
      28A      0.134768    29A      0.145283    30A      0.150462  
      31A      0.154268    32A      0.156042    33A      0.169460  
      34A      0.177383    35A      0.186375    36A      0.209352  
      37A      0.211953    38A      0.239612    39A      0.244018  
      40A      0.258639    41A      0.268823    42A      0.279348  
      43A      0.283816    44A      0.299330    45A      0.304629  
      46A      0.308185    47A      0.313711    48A      0.325337  
      49A      0.328277    50A      0.336320    51A      0.338019  
      52A      0.347734    53A      0.352973    54A      0.363443  
      55A      0.366471    56A      0.368299    57A      0.376692  
      58A      0.382344    59A      0.385755    60A      0.388163  
      61A      0.394135    62A      0.417070    63A      0.421493  
      64A      0.427185    65A      0.442144    66A      0.444581  
      67A      0.447733    68A      0.457192    69A      0.474437  
      70A      0.487713    71A      0.491673    72A      0.502157  
      73A      0.519360    74A      0.524511    75A      0.530311  
      76A      0.536767    77A      0.541303    78A      0.543328  
      79A      0.564133    80A      0.574198    81A      0.584029  
      82A      0.593233    83A      0.601160    84A      0.610760  
      85A      0.619734    86A      0.625638    87A      0.628888  
      88A      0.642618    89A      0.649356    90A      0.664737  
      91A      0.681202    92A      0.695646    93A      0.703309  
      94A      0.718879    95A      0.721546    96A      0.734393  
      97A      0.749516    98A      0.765002    99A      0.781362  
     100A      0.785557   101A      0.789565   102A      0.804443  
     103A      0.815516   104A      0.848571   105A      0.855288  
     106A      0.878622   107A      0.895011   108A      0.906391  
     109A      0.921947   110A      0.958444   111A      0.978664  
     112A      0.995726   113A      1.013390   114A      1.029231  
     115A      1.048417   116A      1.060061   117A      1.078421  
     118A      1.089891   119A      1.098580   120A      1.122710  
     121A      1.127372   122A      1.130245   123A      1.138411  
     124A      1.146092   125A      1.166981   126A      1.175417  
     127A      1.188014   128A      1.200885   129A      1.208934  
     130A      1.219457   131A      1.240758   132A      1.257746  
     133A      1.262102   134A      1.270209   135A      1.276830  
     136A      1.290171   137A      1.304829   138A      1.305854  
     139A      1.317003   140A      1.321076   141A      1.348889  
     142A      1.349525   143A      1.352972   144A      1.372998  
     145A      1.393375   146A      1.397359   147A      1.405033  
     148A      1.415172   149A      1.423624   150A      1.439878  
     151A      1.447238   152A      1.457077   153A      1.473003  
     154A      1.483730   155A      1.484995   156A      1.500630  
     157A      1.517844   158A      1.525409   159A      1.540291  
     160A      1.544111   161A      1.565671   162A      1.588895  
     163A      1.591770   164A      1.599689   165A      1.606609  
     166A      1.612465   167A      1.631233   168A      1.645795  
     169A      1.658099   170A      1.678312   171A      1.694317  
     172A      1.696624   173A      1.715595   174A      1.726308  
     175A      1.742935   176A      1.758350   177A      1.783944  
     178A      1.791182   179A      1.815231   180A      1.844056  
     181A      1.863726   182A      1.886792   183A      1.893701  
     184A      1.904583   185A      1.925508   186A      1.933788  
     187A      2.015795   188A      2.018966   189A      2.041104  
     190A      2.068330   191A      2.110813   192A      2.136698  
     193A      2.160877   194A      2.185934   195A      2.223464  
     196A      2.232345   197A      2.341873   198A      2.385379  
     199A      2.396468   200A      2.417283   201A      2.460207  
     202A      2.498849   203A      2.558282   204A      2.606433  
     205A      2.610106   206A      2.728251   207A      2.741063  
     208A      2.800566   209A      2.815322   210A      2.827570  
     211A      2.867126   212A      2.871405   213A      2.889430  
     214A      2.920882   215A      3.001514   216A      3.045194  
     217A      3.075484   218A      3.081990   219A      3.109799  
     220A      3.123690   221A      3.175332   222A      3.187346  
     223A      3.203143   224A      3.225215   225A      3.243401  
     226A      3.272500   227A      3.311370   228A      3.324660  
     229A      3.345629   230A      3.351522   231A      3.378788  
     232A      3.396295   233A      3.432130   234A      3.437543  
     235A      3.462832   236A      3.488051   237A      3.500797  
     238A      3.519296   239A      3.522617   240A      3.534687  
     241A      3.547971   242A      3.570231   243A      3.580542  
     244A      3.586188   245A      3.600606   246A      3.605324  
     247A      3.618751   248A      3.634212   249A      3.642129  
     250A      3.647178   251A      3.664594   252A      3.676455  
     253A      3.714988   254A      3.730940   255A      3.736344  
     256A      3.752227   257A      3.762736   258A      3.783989  
     259A      3.788442   260A      3.800978   261A      3.810240  
     262A      3.815908   263A      3.825472   264A      3.851738  
     265A      3.866910   266A      3.882235   267A      3.903137  
     268A      3.907138   269A      3.913535   270A      3.943704  
     271A      3.960447   272A      3.973674   273A      3.986668  
     274A      4.017975   275A      4.037009   276A      4.058007  
     277A      4.075425   278A      4.077861   279A      4.096652  
     280A      4.101886   281A      4.138399   282A      4.149695  
     283A      4.164187   284A      4.179817   285A      4.192529  
     286A      4.205861   287A      4.225734   288A      4.238293  
     289A      4.288770   290A      4.299200   291A      4.310489  
     292A      4.331191   293A      4.352444   294A      4.354304  
     295A      4.364610   296A      4.388442   297A      4.398848  
     298A      4.405787   299A      4.409773   300A      4.418175  
     301A      4.440634   302A      4.451136   303A      4.466007  
     304A      4.478051   305A      4.496845   306A      4.504439  
     307A      4.517614   308A      4.528811   309A      4.536242  
     310A      4.554669   311A      4.561217   312A      4.592614  
     313A      4.601690   314A      4.615868   315A      4.621695  
     316A      4.635022   317A      4.655957   318A      4.667560  
     319A      4.678616   320A      4.695084   321A      4.700583  
     322A      4.721822   323A      4.730984   324A      4.750781  
     325A      4.762464   326A      4.785393   327A      4.803108  
     328A      4.815968   329A      4.820254   330A      4.827435  
     331A      4.839917   332A      4.846182   333A      4.852550  
     334A      4.861738   335A      4.865799   336A      4.901489  
     337A      4.909028   338A      4.914807   339A      4.920934  
     340A      4.936540   341A      4.943343   342A      4.967318  
     343A      4.972379   344A      4.980671   345A      5.003441  
     346A      5.022187   347A      5.037532   348A      5.052346  
     349A      5.065736   350A      5.080633   351A      5.087163  
     352A      5.131586   353A      5.139366   354A      5.163802  
     355A      5.194500   356A      5.202715   357A      5.215603  
     358A      5.221569   359A      5.244565   360A      5.287489  
     361A      5.309994   362A      5.329205   363A      5.358749  
     364A      5.388000   365A      5.393367   366A      5.404931  
     367A      5.448386   368A      5.476199   369A      5.500068  
     370A      5.564583   371A      5.595589   372A      5.613001  
     373A      5.626143   374A      5.630710   375A      5.636165  
     376A      5.640375   377A      5.691164   378A      5.696156  
     379A      5.768645   380A      5.794005   381A      5.832929  
     382A      5.858774   383A      5.915146   384A      5.960091  
     385A      5.971964   386A      6.025555   387A      6.060656  
     388A      6.103335   389A      6.196507   390A      6.206664  
     391A      6.261078   392A      6.350046   393A      6.351473  
     394A      6.376794   395A      6.408231   396A      6.424715  
     397A      6.444901   398A      6.453937   399A      6.466512  
     400A      6.505532   401A      6.511998   402A      6.535783  
     403A      6.623792   404A      6.706409   405A      6.776188  
     406A      6.906027   407A      6.995550   408A      7.308260  
     409A      7.490055   410A      7.568793   411A      7.596237  
     412A      7.631831   413A      7.690866   414A      7.697578  
     415A      7.811362   416A      7.835767   417A      7.866033  
     418A      7.916541   419A      8.048643   420A      8.216519  
     421A      8.505072   422A      9.580386   423A      9.890711  
     424A      9.928420   425A     12.307912   426A     14.651607  
     427A     15.369701   428A     44.302901   429A     45.377778  
     430A     45.839064  

    Final Occupation by Irrep:
              A 
    DOCC [    12 ]

  @DF-RHF Final Energy:  -117.11694649866371

   => Energetics <=

    Nuclear Repulsion Energy =             70.8663591434064983
    One-Electron Energy =                -296.7785293797425084
    Two-Electron Energy =                 108.7952237376723019
    Total Energy =                       -117.1169464986637081

Computation Completed


Properties will be evaluated at   0.000000,   0.000000,   0.000000 [a0]

Properties computed using the SCF density matrix

  Nuclear Dipole Moment: [e a0]
     X:    84.9973      Y:     5.6329      Z:    -0.6408

  Electronic Dipole Moment: [e a0]
     X:   -84.9747      Y:    -5.7759      Z:     0.5583

  Dipole Moment: [e a0]
     X:     0.0226      Y:    -0.1430      Z:    -0.0825     Total:     0.1666

  Dipole Moment: [D]
     X:     0.0574      Y:    -0.3634      Z:    -0.2098     Total:     0.4235


*** tstop() called on r282 at Fri Sep 10 21:59:55 2021
Module time:
	user time   =      17.56 seconds =       0.29 minutes
	system time =       0.43 seconds =       0.01 minutes
	total time  =         18 seconds =       0.30 minutes
Total time:
	user time   =      67.83 seconds =       1.13 minutes
	system time =       1.77 seconds =       0.03 minutes
	total time  =         70 seconds =       1.17 minutes
  Constructing Basis Sets for SAPT...

   => Loading Basis Set <=

    Name: (JUN-CC-PVTZ AUX)
    Role: RIFIT
    Keyword: DF_BASIS_SAPT
    atoms 1-3, 12-14  entry C          line   132 file /home/r08543048/miniconda3/share/psi4/basis/jun-cc-pvtz-ri.gbs 
    atoms 4-11, 15-20 entry H          line    30 file /home/r08543048/miniconda3/share/psi4/basis/jun-cc-pvtz-ri.gbs 


  //>>>>>>>>>>>>>>>>>>>>>>>>>>>>>>>>>>>//
  //               SAPT0               //
  //<<<<<<<<<<<<<<<<<<<<<<<<<<<<<<<<<<<//


*** tstart() called on r282
*** at Fri Sep 10 21:59:55 2021

        SAPT0  
    Ed Hohenstein
     6 June 2009

      Orbital Information
  --------------------------
    NSO        =       430
    NMO        =       430
    NRI        =      1002
    NOCC A     =        13
    NOCC B     =        12
    FOCC A     =         0
    FOCC B     =         0
    NVIR A     =       417
    NVIR B     =       418

    Elst10,r            =    -0.002309152590 [Eh]
    Exch10              =     0.006161935571 [Eh]
    Exch10 (S^2)        =     0.006141868534 [Eh]

    Iter     Energy [mEh]          dE [mEh]         Residual      Time [s]
       1      -0.45145523       0.451455232       3.214043819             1
       2      -0.50604761       0.054592380       1.090505228             1
       3      -0.52423765       0.018190037       0.208177090             2
       4      -0.52380052      -0.000437128       0.067483770             3
       5      -0.52314626      -0.000654256       0.011471126             3
       6      -0.52323338       0.000087119       0.003067276             4
       7      -0.52324102       0.000007637       0.000657081             4
       8      -0.52323760      -0.000003416       0.000152973             5
       9      -0.52323757      -0.000000038       0.000034718             6
      10      -0.52323770       0.000000136       0.000007579             6
      11      -0.52323770      -0.000000004       0.000002216             7
      12      -0.52323769      -0.000000006       0.000000517             7

    CHF Iterations converged


    Iter     Energy [mEh]          dE [mEh]         Residual      Time [s]
       1      -0.85298983       0.852989833       3.914229812             1
       2      -1.09044753       0.237457698       0.916939704             2
       3      -1.08926301      -0.001184524       0.366539627             2
       4      -1.08529157      -0.003971442       0.085281543             3
       5      -1.08554784       0.000256271       0.030699684             3
       6      -1.08578753       0.000239689       0.007146993             4
       7      -1.08577951      -0.000008019       0.002944052             5
       8      -1.08576165      -0.000017857       0.000824833             5
       9      -1.08576627       0.000004617       0.000206999             6
      10      -1.08576652       0.000000256       0.000064145             6
      11      -1.08576624      -0.000000287       0.000014904             7
      12      -1.08576626       0.000000022       0.000003173             7
      13      -1.08576627       0.000000008       0.000000670             8

    CHF Iterations converged

    Ind20,r (A<-B)      =    -0.000523237693 [Eh]
    Ind20,r (B<-A)      =    -0.001085766267 [Eh]
    Ind20,r             =    -0.001609003960 [Eh]
    Exch-Ind20,r (A<-B) =     0.000406664806 [Eh]
    Exch-Ind20,r (B<-A) =     0.001056510526 [Eh]
    Exch-Ind20,r        =     0.001463175331 [Eh]
    Disp20              =    -0.007554865422 [Eh]
    Disp20 (SS)         =    -0.003777432711 [Eh]
    Disp20 (OS)         =    -0.003777432711 [Eh]
    Exch-Disp20         =     0.000783217036 [Eh]
    Exch-Disp20 (SS)    =     0.000506858961 [Eh]
    Exch-Disp20 (OS)    =     0.000276358075 [Eh]

    SAPT Results 
  --------------------------------------------------------------------------------------------------------
    Electrostatics                 -2.30915259 [mEh]      -1.44901513 [kcal/mol]      -6.06267929 [kJ/mol]
      Elst10,r                     -2.30915259 [mEh]      -1.44901513 [kcal/mol]      -6.06267929 [kJ/mol]

    Exchange                        6.16193557 [mEh]       3.86667295 [kcal/mol]      16.17815961 [kJ/mol]
      Exch10                        6.16193557 [mEh]       3.86667295 [kcal/mol]      16.17815961 [kJ/mol]
      Exch10(S^2)                   6.14186853 [mEh]       3.85408069 [kcal/mol]      16.12547361 [kJ/mol]

    Induction                      -0.65307268 [mEh]      -0.40980930 [kcal/mol]      -1.71464210 [kJ/mol]
      Ind20,r                      -1.60900396 [mEh]      -1.00966523 [kcal/mol]      -4.22443931 [kJ/mol]
      Exch-Ind20,r                  1.46317533 [mEh]       0.91815638 [kcal/mol]       3.84156630 [kJ/mol]
      delta HF,r (2)               -0.50724406 [mEh]      -0.31830045 [kcal/mol]      -1.33176909 [kJ/mol]

    Dispersion                     -6.77164839 [mEh]      -4.24927352 [kcal/mol]     -17.77896039 [kJ/mol]
      Disp20                       -7.55486542 [mEh]      -4.74074963 [kcal/mol]     -19.83529643 [kJ/mol]
      Exch-Disp20                   0.78321704 [mEh]       0.49147611 [kcal/mol]       2.05633604 [kJ/mol]
      Disp20 (SS)                  -3.77743271 [mEh]      -2.37037481 [kcal/mol]      -9.91764822 [kJ/mol]
      Disp20 (OS)                  -3.77743271 [mEh]      -2.37037481 [kcal/mol]      -9.91764822 [kJ/mol]
      Exch-Disp20 (SS)              0.50685896 [mEh]       0.31805880 [kcal/mol]       1.33075802 [kJ/mol]
      Exch-Disp20 (OS)              0.27635807 [mEh]       0.17341731 [kcal/mol]       0.72557803 [kJ/mol]

  Total HF                          3.19971030 [mEh]       2.00784852 [kcal/mol]       8.40083823 [kJ/mol]
  Total SAPT0                      -3.57193809 [mEh]      -2.24142499 [kcal/mol]      -9.37812216 [kJ/mol]

  Special recipe for scaled SAPT0 (see Manual):
    Electrostatics sSAPT0          -2.30915259 [mEh]      -1.44901513 [kcal/mol]      -6.06267929 [kJ/mol]
    Exchange sSAPT0                 6.16193557 [mEh]       3.86667295 [kcal/mol]      16.17815961 [kJ/mol]
    Induction sSAPT0               -0.63868408 [mEh]      -0.40078031 [kcal/mol]      -1.67686483 [kJ/mol]
    Dispersion sSAPT0              -6.76394637 [mEh]      -4.24444043 [kcal/mol]     -17.75873875 [kJ/mol]
  Total sSAPT0                     -3.54984748 [mEh]      -2.22756292 [kcal/mol]      -9.32012327 [kJ/mol]
  --------------------------------------------------------------------------------------------------------

*** tstop() called on r282 at Fri Sep 10 22:01:00 2021
Module time:
	user time   =      54.52 seconds =       0.91 minutes
	system time =      10.33 seconds =       0.17 minutes
	total time  =         65 seconds =       1.08 minutes
Total time:
	user time   =     122.48 seconds =       2.04 minutes
	system time =      12.10 seconds =       0.20 minutes
	total time  =        135 seconds =       2.25 minutes

    Psi4 stopped on: Friday, 10 September 2021 10:01PM
    Psi4 wall time for execution: 0:02:14.89

*** Psi4 exiting successfully. Buy a developer a beer!
