
    -----------------------------------------------------------------------
          Psi4: An Open-Source Ab Initio Electronic Structure Package
                               Psi4 1.3.2 release

                         Git: Rev {HEAD} ecbda83 


    R. M. Parrish, L. A. Burns, D. G. A. Smith, A. C. Simmonett,
    A. E. DePrince III, E. G. Hohenstein, U. Bozkaya, A. Yu. Sokolov,
    R. Di Remigio, R. M. Richard, J. F. Gonthier, A. M. James,
    H. R. McAlexander, A. Kumar, M. Saitow, X. Wang, B. P. Pritchard,
    P. Verma, H. F. Schaefer III, K. Patkowski, R. A. King, E. F. Valeev,
    F. A. Evangelista, J. M. Turney, T. D. Crawford, and C. D. Sherrill,
    J. Chem. Theory Comput. 13(7) pp 3185--3197 (2017).
    (doi: 10.1021/acs.jctc.7b00174)


                         Additional Contributions by
    P. Kraus, H. Kruse, M. H. Lechner, M. C. Schieber, R. A. Shaw,
    A. Alenaizan, R. Galvelis, Z. L. Glick, S. Lehtola, and J. P. Misiewicz

    -----------------------------------------------------------------------


    Psi4 started on: Friday, 10 September 2021 10:01PM

    Process ID: 57231
    Host:       r282
    PSIDATADIR: /home/r08543048/miniconda3/share/psi4
    Memory:     500.0 MiB
    Threads:    1
    
  ==> Input File <==

--------------------------------------------------------------------------
# Any line starting with the # character is a comment line
#! Sample  computation

memory 22 gb

molecule Dimer {
0 1
 C  -2.012221   -1.499101    0.588721
 C  -2.066807   -0.482984   -0.545072
 C  -2.711783    0.826364   -0.107159
 H  -1.434061   -1.111464    1.428913
 H  -3.016265   -1.725060    0.951266
 H  -1.547802   -2.432545    0.271911
 H  -2.624329   -0.901374   -1.385848
 H  -1.055705   -0.289722   -0.910240
 H  -2.748488    1.551113   -0.920444
 H  -3.732791    0.656041    0.237537
 H  -2.155336    1.275700    0.716999



 






 --
0 1
 C 1.695340   -2.200708   -0.274309
 C 2.182297   -1.037357    0.167046
 C 1.848214    0.296782   -0.417766
 C 1.116480    1.195181    0.581066
 C 0.722391    2.531500   -0.033885
 H 1.028804   -2.236803   -1.127392
 H 1.952266   -3.136959    0.201404
 H 2.845281   -1.038862    1.027933
 H 2.763893    0.804005   -0.737941
 H 1.231141    0.160031   -1.310073
 H 0.227796    0.671857    0.940673
 H 1.756393    1.357523    1.452189
 H 1.602191    3.069208   -0.389996
 H 0.055855    2.381469   -0.884460
 H 0.207700    3.167773    0.685711







units angstrom

no_reorient
symmetry c1
}

set globals{
  basis jun-cc-pvtz
}

energy('sapt0')


--------------------------------------------------------------------------

  Memory set to  20.489 GiB by Python driver.

  //>>>>>>>>>>>>>>>>>>>>>>>>>>>>>>>>>>>//
  //              Dimer HF             //
  //<<<<<<<<<<<<<<<<<<<<<<<<<<<<<<<<<<<//


*** tstart() called on r282
*** at Fri Sep 10 22:01:00 2021

   => Loading Basis Set <=

    Name: JUN-CC-PVTZ
    Role: ORBITAL
    Keyword: BASIS
    atoms 1-3, 12-16  entry C          line   217 file /home/r08543048/miniconda3/share/psi4/basis/jun-cc-pvtz.gbs 
    atoms 4-11, 17-26 entry H          line    36 file /home/r08543048/miniconda3/share/psi4/basis/jun-cc-pvtz.gbs 


         ---------------------------------------------------------
                                   SCF
               by Justin Turney, Rob Parrish, Andy Simmonett
                          and Daniel G. A. Smith
                              RHF Reference
                        1 Threads,  20980 MiB Core
         ---------------------------------------------------------

  ==> Geometry <==

    Molecular point group: c1
    Full point group: C1

    Geometry (in Angstrom), charge = 0, multiplicity = 1:

       Center              X                  Y                   Z               Mass       
    ------------   -----------------  -----------------  -----------------  -----------------
         C           -2.052584636471    -1.479786632645     0.590878091695    12.000000000000
         C           -2.107170636471    -0.463669632645    -0.542914908305    12.000000000000
         C           -2.752146636471     0.845678367355    -0.105001908305    12.000000000000
         H           -1.474424636471    -1.092149632645     1.431070091695     1.007825032230
         H           -3.056628636471    -1.705745632645     0.953423091695     1.007825032230
         H           -1.588165636471    -2.413230632645     0.274068091695     1.007825032230
         H           -2.664692636471    -0.882059632645    -1.383690908305     1.007825032230
         H           -1.096068636471    -0.270407632645    -0.908082908305     1.007825032230
         H           -2.788851636471     1.570427367355    -0.918286908305     1.007825032230
         H           -3.773154636471     0.675355367355     0.239694091695     1.007825032230
         H           -2.195699636471     1.295014367355     0.719156091695     1.007825032230
         C            1.654976363529    -2.181393632645    -0.272151908305    12.000000000000
         C            2.141933363529    -1.018042632645     0.169203091695    12.000000000000
         C            1.807850363529     0.316096367355    -0.415608908305    12.000000000000
         C            1.076116363529     1.214495367355     0.583223091695    12.000000000000
         C            0.682027363529     2.550814367355    -0.031727908305    12.000000000000
         H            0.988440363529    -2.217488632645    -1.125234908305     1.007825032230
         H            1.911902363529    -3.117644632645     0.203561091695     1.007825032230
         H            2.804917363529    -1.019547632645     1.030090091695     1.007825032230
         H            2.723529363529     0.823319367355    -0.735783908305     1.007825032230
         H            1.190777363529     0.179345367355    -1.307915908305     1.007825032230
         H            0.187432363529     0.691171367355     0.942830091695     1.007825032230
         H            1.716029363529     1.376837367355     1.454346091695     1.007825032230
         H            1.561827363529     3.088522367355    -0.387838908305     1.007825032230
         H            0.015491363529     2.400783367355    -0.882302908305     1.007825032230
         H            0.167336363529     3.187087367355     0.687868091695     1.007825032230

  Running in c1 symmetry.

  Rotational constants: A =      0.05704  B =      0.03750  C =      0.02472 [cm^-1]
  Rotational constants: A =   1709.87817  B =   1124.17454  C =    741.09969 [MHz]
  Nuclear repulsion =  381.100057078838574

  Charge       = 0
  Multiplicity = 1
  Electrons    = 66
  Nalpha       = 33
  Nbeta        = 33

  ==> Algorithm <==

  SCF Algorithm Type is DF.
  DIIS enabled.
  MOM disabled.
  Fractional occupation disabled.
  Guess Type is SAD.
  Energy threshold   = 1.00e-08
  Density threshold  = 1.00e-08
  Integral threshold = 0.00e+00

  ==> Primary Basis <==

  Basis Set: JUN-CC-PVTZ
    Blend: JUN-CC-PVTZ
    Number of shells: 212
    Number of basis function: 564
    Number of Cartesian functions: 630
    Spherical Harmonics?: true
    Max angular momentum: 3

   => Loading Basis Set <=

    Name: (JUN-CC-PVTZ AUX)
    Role: JKFIT
    Keyword: DF_BASIS_SCF
    atoms 1-3, 12-16  entry C          line   152 file /home/r08543048/miniconda3/share/psi4/basis/jun-cc-pvtz-jkfit.gbs 
    atoms 4-11, 17-26 entry H          line    70 file /home/r08543048/miniconda3/share/psi4/basis/jun-cc-pvtz-jkfit.gbs 

  ==> Pre-Iterations <==

   -------------------------------------------------------
    Irrep   Nso     Nmo     Nalpha   Nbeta   Ndocc  Nsocc
   -------------------------------------------------------
     A        564     564       0       0       0       0
   -------------------------------------------------------
    Total     564     564      33      33      33       0
   -------------------------------------------------------

  ==> Integral Setup <==

  ==> DiskDFJK: Density-Fitted J/K Matrices <==

    J tasked:                  Yes
    K tasked:                  Yes
    wK tasked:                  No
    OpenMP threads:              1
    Integrals threads:           1
    Memory [MiB]:            15735
    Algorithm:                Core
    Integral Cache:           SAVE
    Schwarz Cutoff:          1E-12
    Fitting Condition:       1E-10

   => Auxiliary Basis Set <=

  Basis Set: (JUN-CC-PVTZ AUX)
    Blend: JUN-CC-PVTZ-JKFIT
    Number of shells: 412
    Number of basis function: 1300
    Number of Cartesian functions: 1558
    Spherical Harmonics?: true
    Max angular momentum: 4

  Minimum eigenvalue in the overlap matrix is 3.0687073480E-05.
  Using Symmetric Orthogonalization.

  SCF Guess: Superposition of Atomic Densities via on-the-fly atomic UHF.

  ==> Iterations <==

                           Total Energy        Delta E     RMS |[F,P]|

   @DF-RHF iter SAD:  -312.35679918674708   -3.12357e+02   0.00000e+00 
   @DF-RHF iter   1:  -313.14328213303270   -7.86483e-01   1.37154e-03 DIIS
   @DF-RHF iter   2:  -313.44765335423949   -3.04371e-01   6.23401e-04 DIIS
   @DF-RHF iter   3:  -313.51201115285056   -6.43578e-02   1.16521e-04 DIIS
   @DF-RHF iter   4:  -313.51629282125441   -4.28167e-03   3.33590e-05 DIIS
   @DF-RHF iter   5:  -313.51652839057539   -2.35569e-04   8.42415e-06 DIIS
   @DF-RHF iter   6:  -313.51654644735686   -1.80568e-05   2.14005e-06 DIIS
   @DF-RHF iter   7:  -313.51654756893100   -1.12157e-06   5.04026e-07 DIIS
   @DF-RHF iter   8:  -313.51654764059373   -7.16627e-08   1.09412e-07 DIIS
   @DF-RHF iter   9:  -313.51654764497385   -4.38013e-09   3.56464e-08 DIIS
   @DF-RHF iter  10:  -313.51654764549608   -5.22220e-10   1.29761e-08 DIIS
   @DF-RHF iter  11:  -313.51654764556145   -6.53699e-11   4.74232e-09 DIIS
  Energy and wave function converged.


  ==> Post-Iterations <==

    Orbital Energies [Eh]
    ---------------------

    Doubly Occupied:                                                      

       1A    -11.230546     2A    -11.222188     3A    -11.219172  
       4A    -11.217179     5A    -11.214534     6A    -11.211358  
       7A    -11.207495     8A    -11.205140     9A     -1.090246  
      10A     -1.053201    11A     -1.022194    12A     -0.923792  
      13A     -0.922542    14A     -0.812130    15A     -0.799177  
      16A     -0.757186    17A     -0.655507    18A     -0.625404  
      19A     -0.613501    20A     -0.597735    21A     -0.589304  
      22A     -0.567401    23A     -0.548106    24A     -0.537966  
      25A     -0.528206    26A     -0.512416    27A     -0.484125  
      28A     -0.475798    29A     -0.474615    30A     -0.473170  
      31A     -0.468810    32A     -0.464816    33A     -0.356195  

    Virtual:                                                              

      34A      0.048059    35A      0.052236    36A      0.053976  
      37A      0.058061    38A      0.069088    39A      0.071988  
      40A      0.074770    41A      0.081106    42A      0.087540  
      43A      0.101536    44A      0.105048    45A      0.114317  
      46A      0.114768    47A      0.117342    48A      0.121472  
      49A      0.123407    50A      0.133400    51A      0.141213  
      52A      0.148316    53A      0.151999    54A      0.159102  
      55A      0.163606    56A      0.166155    57A      0.169709  
      58A      0.186148    59A      0.188723    60A      0.193860  
      61A      0.197995    62A      0.203394    63A      0.208497  
      64A      0.216897    65A      0.220854    66A      0.229113  
      67A      0.255994    68A      0.264457    69A      0.265313  
      70A      0.268426    71A      0.280656    72A      0.287364  
      73A      0.297813    74A      0.303431    75A      0.310362  
      76A      0.311439    77A      0.316425    78A      0.321652  
      79A      0.326374    80A      0.329340    81A      0.335142  
      82A      0.338768    83A      0.341583    84A      0.350175  
      85A      0.351076    86A      0.357991    87A      0.362070  
      88A      0.369346    89A      0.372274    90A      0.380152  
      91A      0.383432    92A      0.392042    93A      0.396518  
      94A      0.400841    95A      0.405003    96A      0.407423  
      97A      0.414888    98A      0.423648    99A      0.429741  
     100A      0.439439   101A      0.449203   102A      0.457295  
     103A      0.458389   104A      0.462908   105A      0.471531  
     106A      0.476253   107A      0.485486   108A      0.491230  
     109A      0.501839   110A      0.507729   111A      0.511071  
     112A      0.524132   113A      0.529345   114A      0.533871  
     115A      0.545071   116A      0.547132   117A      0.553706  
     118A      0.555128   119A      0.561454   120A      0.566406  
     121A      0.569936   122A      0.586005   123A      0.590750  
     124A      0.595314   125A      0.604399   126A      0.612405  
     127A      0.621701   128A      0.632797   129A      0.637985  
     130A      0.665548   131A      0.674928   132A      0.685795  
     133A      0.695259   134A      0.701334   135A      0.703287  
     136A      0.719260   137A      0.728660   138A      0.731999  
     139A      0.744490   140A      0.745634   141A      0.753807  
     142A      0.767684   143A      0.779710   144A      0.787486  
     145A      0.800989   146A      0.808852   147A      0.812938  
     148A      0.817832   149A      0.821421   150A      0.828487  
     151A      0.829293   152A      0.839915   153A      0.850561  
     154A      0.852827   155A      0.866174   156A      0.870636  
     157A      0.871180   158A      0.882438   159A      0.887001  
     160A      0.896507   161A      0.897844   162A      0.902995  
     163A      0.911489   164A      0.917114   165A      0.926815  
     166A      0.939848   167A      0.948728   168A      0.954893  
     169A      0.958976   170A      0.979415   171A      0.993205  
     172A      0.994643   173A      1.011410   174A      1.017837  
     175A      1.028230   176A      1.035501   177A      1.059048  
     178A      1.062920   179A      1.071233   180A      1.097070  
     181A      1.107150   182A      1.114946   183A      1.125982  
     184A      1.129114   185A      1.150421   186A      1.156497  
     187A      1.171985   188A      1.183415   189A      1.191905  
     190A      1.212031   191A      1.223553   192A      1.236762  
     193A      1.256973   194A      1.269321   195A      1.273155  
     196A      1.282037   197A      1.283928   198A      1.292977  
     199A      1.312900   200A      1.321036   201A      1.328006  
     202A      1.339596   203A      1.352727   204A      1.366452  
     205A      1.370959   206A      1.378942   207A      1.389141  
     208A      1.396803   209A      1.405735   210A      1.418902  
     211A      1.420579   212A      1.435520   213A      1.438603  
     214A      1.458395   215A      1.463592   216A      1.468469  
     217A      1.481095   218A      1.484700   219A      1.494911  
     220A      1.504397   221A      1.514327   222A      1.528361  
     223A      1.541337   224A      1.548489   225A      1.566438  
     226A      1.569134   227A      1.577088   228A      1.584933  
     229A      1.590341   230A      1.595896   231A      1.604323  
     232A      1.607495   233A      1.616920   234A      1.624259  
     235A      1.635278   236A      1.644163   237A      1.652908  
     238A      1.656655   239A      1.670015   240A      1.683426  
     241A      1.687947   242A      1.706072   243A      1.710283  
     244A      1.714860   245A      1.728999   246A      1.736011  
     247A      1.756241   248A      1.771736   249A      1.781116  
     250A      1.792625   251A      1.807985   252A      1.822944  
     253A      1.840139   254A      1.852195   255A      1.854649  
     256A      1.871685   257A      1.875557   258A      1.894064  
     259A      1.903660   260A      1.928605   261A      1.938128  
     262A      1.958400   263A      1.965466   264A      1.973929  
     265A      1.986243   266A      1.997257   267A      2.012176  
     268A      2.024061   269A      2.031743   270A      2.120258  
     271A      2.124587   272A      2.141225   273A      2.158982  
     274A      2.281463   275A      2.701210   276A      2.745335  
     277A      2.752770   278A      2.767260   279A      2.774624  
     280A      2.791991   281A      2.805689   282A      2.808831  
     283A      2.811150   284A      2.834090   285A      2.845597  
     286A      2.847734   287A      2.856569   288A      2.870992  
     289A      2.884256   290A      2.906836   291A      2.912568  
     292A      2.914818   293A      2.934376   294A      2.944290  
     295A      2.961100   296A      2.973072   297A      2.974872  
     298A      2.981742   299A      2.998835   300A      3.010895  
     301A      3.030692   302A      3.038349   303A      3.044378  
     304A      3.072775   305A      3.084947   306A      3.097637  
     307A      3.108901   308A      3.111647   309A      3.136587  
     310A      3.138465   311A      3.149886   312A      3.158190  
     313A      3.167806   314A      3.182923   315A      3.185192  
     316A      3.194192   317A      3.203488   318A      3.221770  
     319A      3.235140   320A      3.240473   321A      3.251783  
     322A      3.255143   323A      3.266806   324A      3.274449  
     325A      3.297879   326A      3.299515   327A      3.304157  
     328A      3.320904   329A      3.323880   330A      3.334912  
     331A      3.350450   332A      3.367035   333A      3.370467  
     334A      3.379285   335A      3.382226   336A      3.393744  
     337A      3.396641   338A      3.404886   339A      3.413215  
     340A      3.416185   341A      3.431712   342A      3.433882  
     343A      3.449851   344A      3.460296   345A      3.466163  
     346A      3.483612   347A      3.490733   348A      3.492755  
     349A      3.499774   350A      3.503915   351A      3.513351  
     352A      3.515671   353A      3.524961   354A      3.529447  
     355A      3.539959   356A      3.547573   357A      3.551731  
     358A      3.554361   359A      3.564740   360A      3.576653  
     361A      3.588912   362A      3.593738   363A      3.605224  
     364A      3.620582   365A      3.626450   366A      3.629893  
     367A      3.648831   368A      3.648949   369A      3.669774  
     370A      3.678658   371A      3.690854   372A      3.718612  
     373A      3.723681   374A      3.743282   375A      3.760967  
     376A      3.770389   377A      3.779874   378A      3.786997  
     379A      3.797427   380A      3.805127   381A      3.808541  
     382A      3.820566   383A      3.829274   384A      3.836545  
     385A      3.850046   386A      3.858310   387A      3.872240  
     388A      3.879246   389A      3.893895   390A      3.913692  
     391A      3.936401   392A      3.939171   393A      3.951295  
     394A      3.961620   395A      3.971739   396A      3.975120  
     397A      3.983220   398A      3.997057   399A      4.007550  
     400A      4.024577   401A      4.034476   402A      4.042694  
     403A      4.061779   404A      4.084588   405A      4.112044  
     406A      4.131324   407A      4.137513   408A      4.163420  
     409A      4.181314   410A      4.187202   411A      4.198950  
     412A      4.202919   413A      4.211671   414A      4.241561  
     415A      4.245457   416A      4.245721   417A      4.257440  
     418A      4.261536   419A      4.279071   420A      4.291675  
     421A      4.309195   422A      4.315535   423A      4.327442  
     424A      4.331318   425A      4.343428   426A      4.349145  
     427A      4.361531   428A      4.368412   429A      4.377711  
     430A      4.383015   431A      4.391499   432A      4.395552  
     433A      4.399961   434A      4.409306   435A      4.413103  
     436A      4.430531   437A      4.443772   438A      4.456380  
     439A      4.466192   440A      4.480293   441A      4.484310  
     442A      4.493655   443A      4.508841   444A      4.513826  
     445A      4.522031   446A      4.530041   447A      4.543153  
     448A      4.544359   449A      4.551603   450A      4.559104  
     451A      4.572139   452A      4.583020   453A      4.595506  
     454A      4.599860   455A      4.628949   456A      4.632895  
     457A      4.646816   458A      4.664988   459A      4.672917  
     460A      4.689349   461A      4.698787   462A      4.717357  
     463A      4.732495   464A      4.739860   465A      4.764126  
     466A      4.769333   467A      4.794679   468A      4.807739  
     469A      4.820763   470A      4.828328   471A      4.836152  
     472A      4.869701   473A      4.880611   474A      4.892900  
     475A      4.900109   476A      4.933995   477A      4.954652  
     478A      4.988479   479A      4.999546   480A      5.013402  
     481A      5.029045   482A      5.052475   483A      5.056376  
     484A      5.077587   485A      5.124497   486A      5.139759  
     487A      5.165955   488A      5.178175   489A      5.193849  
     490A      5.197991   491A      5.213150   492A      5.229666  
     493A      5.255668   494A      5.267897   495A      5.277681  
     496A      5.286780   497A      5.291924   498A      5.293432  
     499A      5.306175   500A      5.313161   501A      5.336606  
     502A      5.352776   503A      5.373253   504A      5.392566  
     505A      5.404209   506A      5.417425   507A      5.443167  
     508A      5.452319   509A      5.466115   510A      5.477519  
     511A      5.489158   512A      5.516639   513A      5.520414  
     514A      5.573599   515A      5.590375   516A      5.607853  
     517A      5.617118   518A      5.642082   519A      5.656657  
     520A      5.711534   521A      5.729317   522A      5.756041  
     523A      5.761259   524A      5.769062   525A      5.777394  
     526A      5.787152   527A      5.794901   528A      5.807044  
     529A      5.820541   530A      5.829741   531A      5.837157  
     532A      5.872770   533A      5.923899   534A      5.932008  
     535A      5.934661   536A      5.942695   537A      5.949149  
     538A      5.962972   539A      5.984201   540A      6.019304  
     541A      6.034911   542A      6.116981   543A      6.137197  
     544A      6.223114   545A      6.412909   546A      6.470334  
     547A      6.491023   548A      6.510860   549A      6.532089  
     550A      6.537357   551A      6.554754   552A      6.566151  
     553A      6.590962   554A      6.630968   555A      6.667471  
     556A      6.718950   557A     12.327397   558A     13.794012  
     559A     14.009372   560A     14.465362   561A     14.520097  
     562A     14.650492   563A     14.725912   564A     15.362246  

    Final Occupation by Irrep:
              A 
    DOCC [    33 ]

  @DF-RHF Final Energy:  -313.51654764556145

   => Energetics <=

    Nuclear Repulsion Energy =            381.1000570788385744
    One-Electron Energy =               -1177.0708984295642949
    Two-Electron Energy =                 482.4542937051643321
    Total Energy =                       -313.5165476455614453

Computation Completed


Properties will be evaluated at   0.000000,   0.000000,   0.000000 [a0]

Properties computed using the SCF density matrix

  Nuclear Dipole Moment: [e a0]
     X:    -5.0342      Y:     2.4089      Z:     0.2690

  Electronic Dipole Moment: [e a0]
     X:     5.0470      Y:    -2.2596      Z:    -0.2456

  Dipole Moment: [e a0]
     X:     0.0128      Y:     0.1494      Z:     0.0234     Total:     0.1517

  Dipole Moment: [D]
     X:     0.0324      Y:     0.3796      Z:     0.0595     Total:     0.3856


*** tstop() called on r282 at Fri Sep 10 22:02:30 2021
Module time:
	user time   =      86.97 seconds =       1.45 minutes
	system time =       1.99 seconds =       0.03 minutes
	total time  =         90 seconds =       1.50 minutes
Total time:
	user time   =      86.97 seconds =       1.45 minutes
	system time =       1.99 seconds =       0.03 minutes
	total time  =         90 seconds =       1.50 minutes

  //>>>>>>>>>>>>>>>>>>>>>>>>>>>>>>>>>>>//
  //            Monomer A HF           //
  //<<<<<<<<<<<<<<<<<<<<<<<<<<<<<<<<<<<//


*** tstart() called on r282
*** at Fri Sep 10 22:02:30 2021

   => Loading Basis Set <=

    Name: JUN-CC-PVTZ
    Role: ORBITAL
    Keyword: BASIS
    atoms 1-3, 12-16  entry C          line   217 file /home/r08543048/miniconda3/share/psi4/basis/jun-cc-pvtz.gbs 
    atoms 4-11, 17-26 entry H          line    36 file /home/r08543048/miniconda3/share/psi4/basis/jun-cc-pvtz.gbs 


         ---------------------------------------------------------
                                   SCF
               by Justin Turney, Rob Parrish, Andy Simmonett
                          and Daniel G. A. Smith
                              RHF Reference
                        1 Threads,  20980 MiB Core
         ---------------------------------------------------------

  ==> Geometry <==

    Molecular point group: c1
    Full point group: C1

    Geometry (in Angstrom), charge = 0, multiplicity = 1:

       Center              X                  Y                   Z               Mass       
    ------------   -----------------  -----------------  -----------------  -----------------
         C           -2.052584636471    -1.479786632645     0.590878091695    12.000000000000
         C           -2.107170636471    -0.463669632645    -0.542914908305    12.000000000000
         C           -2.752146636471     0.845678367355    -0.105001908305    12.000000000000
         H           -1.474424636471    -1.092149632645     1.431070091695     1.007825032230
         H           -3.056628636471    -1.705745632645     0.953423091695     1.007825032230
         H           -1.588165636471    -2.413230632645     0.274068091695     1.007825032230
         H           -2.664692636471    -0.882059632645    -1.383690908305     1.007825032230
         H           -1.096068636471    -0.270407632645    -0.908082908305     1.007825032230
         H           -2.788851636471     1.570427367355    -0.918286908305     1.007825032230
         H           -3.773154636471     0.675355367355     0.239694091695     1.007825032230
         H           -2.195699636471     1.295014367355     0.719156091695     1.007825032230
      Gh(C)           1.654976363529    -2.181393632645    -0.272151908305    12.000000000000
      Gh(C)           2.141933363529    -1.018042632645     0.169203091695    12.000000000000
      Gh(C)           1.807850363529     0.316096367355    -0.415608908305    12.000000000000
      Gh(C)           1.076116363529     1.214495367355     0.583223091695    12.000000000000
      Gh(C)           0.682027363529     2.550814367355    -0.031727908305    12.000000000000
      Gh(H)           0.988440363529    -2.217488632645    -1.125234908305     1.007825032230
      Gh(H)           1.911902363529    -3.117644632645     0.203561091695     1.007825032230
      Gh(H)           2.804917363529    -1.019547632645     1.030090091695     1.007825032230
      Gh(H)           2.723529363529     0.823319367355    -0.735783908305     1.007825032230
      Gh(H)           1.190777363529     0.179345367355    -1.307915908305     1.007825032230
      Gh(H)           0.187432363529     0.691171367355     0.942830091695     1.007825032230
      Gh(H)           1.716029363529     1.376837367355     1.454346091695     1.007825032230
      Gh(H)           1.561827363529     3.088522367355    -0.387838908305     1.007825032230
      Gh(H)           0.015491363529     2.400783367355    -0.882302908305     1.007825032230
      Gh(H)           0.167336363529     3.187087367355     0.687868091695     1.007825032230

  Running in c1 symmetry.

  Rotational constants: A =      0.05704  B =      0.03750  C =      0.02472 [cm^-1]
  Rotational constants: A =   1709.87817  B =   1124.17454  C =    741.09969 [MHz]
  Nuclear repulsion =   82.816899902203801

  Charge       = 0
  Multiplicity = 1
  Electrons    = 26
  Nalpha       = 13
  Nbeta        = 13

  ==> Algorithm <==

  SCF Algorithm Type is DF.
  DIIS enabled.
  MOM disabled.
  Fractional occupation disabled.
  Guess Type is SAD.
  Energy threshold   = 1.00e-08
  Density threshold  = 1.00e-08
  Integral threshold = 0.00e+00

  ==> Primary Basis <==

  Basis Set: JUN-CC-PVTZ
    Blend: JUN-CC-PVTZ
    Number of shells: 212
    Number of basis function: 564
    Number of Cartesian functions: 630
    Spherical Harmonics?: true
    Max angular momentum: 3

   => Loading Basis Set <=

    Name: (JUN-CC-PVTZ AUX)
    Role: JKFIT
    Keyword: DF_BASIS_SCF
    atoms 1-3, 12-16  entry C          line   152 file /home/r08543048/miniconda3/share/psi4/basis/jun-cc-pvtz-jkfit.gbs 
    atoms 4-11, 17-26 entry H          line    70 file /home/r08543048/miniconda3/share/psi4/basis/jun-cc-pvtz-jkfit.gbs 

  ==> Pre-Iterations <==

   -------------------------------------------------------
    Irrep   Nso     Nmo     Nalpha   Nbeta   Ndocc  Nsocc
   -------------------------------------------------------
     A        564     564       0       0       0       0
   -------------------------------------------------------
    Total     564     564      13      13      13       0
   -------------------------------------------------------

  ==> Integral Setup <==

  ==> DiskDFJK: Density-Fitted J/K Matrices <==

    J tasked:                  Yes
    K tasked:                  Yes
    wK tasked:                  No
    OpenMP threads:              1
    Integrals threads:           1
    Memory [MiB]:            15735
    Algorithm:                Core
    Integral Cache:           LOAD
    Schwarz Cutoff:          1E-12
    Fitting Condition:       1E-10

   => Auxiliary Basis Set <=

  Basis Set: (JUN-CC-PVTZ AUX)
    Blend: JUN-CC-PVTZ-JKFIT
    Number of shells: 412
    Number of basis function: 1300
    Number of Cartesian functions: 1558
    Spherical Harmonics?: true
    Max angular momentum: 4

  Minimum eigenvalue in the overlap matrix is 3.0687073480E-05.
  Using Symmetric Orthogonalization.

  SCF Guess: Superposition of Atomic Densities via on-the-fly atomic UHF.

  ==> Iterations <==

                           Total Energy        Delta E     RMS |[F,P]|

   @DF-RHF iter SAD:  -117.72562237214163   -1.17726e+02   0.00000e+00 
   @DF-RHF iter   1:  -118.14638204403468   -4.20760e-01   9.13783e-04 DIIS
   @DF-RHF iter   2:  -118.27575489766443   -1.29373e-01   4.32363e-04 DIIS
   @DF-RHF iter   3:  -118.30617978450445   -3.04249e-02   7.26499e-05 DIIS
   @DF-RHF iter   4:  -118.30803230323301   -1.85252e-03   1.43396e-05 DIIS
   @DF-RHF iter   5:  -118.30809071864448   -5.84154e-05   4.03052e-06 DIIS
   @DF-RHF iter   6:  -118.30809534461659   -4.62597e-06   7.24046e-07 DIIS
   @DF-RHF iter   7:  -118.30809551641461   -1.71798e-07   1.36611e-07 DIIS
   @DF-RHF iter   8:  -118.30809552395544   -7.54083e-09   2.39893e-08 DIIS
   @DF-RHF iter   9:  -118.30809552419157   -2.36128e-10   4.73220e-09 DIIS
  Energy and wave function converged.


  ==> Post-Iterations <==

    Orbital Energies [Eh]
    ---------------------

    Doubly Occupied:                                                      

       1A    -11.215651     2A    -11.207891     3A    -11.207824  
       4A     -1.054032     5A     -0.924792     6A     -0.799774  
       7A     -0.624799     8A     -0.598270     9A     -0.549158  
      10A     -0.530303    11A     -0.475435    12A     -0.474995  
      13A     -0.468028  

    Virtual:                                                              

      14A      0.029323    15A      0.041420    16A      0.049180  
      17A      0.053404    18A      0.065630    19A      0.067351  
      20A      0.071890    21A      0.078321    22A      0.083917  
      23A      0.097651    24A      0.101483    25A      0.105370  
      26A      0.111890    27A      0.113937    28A      0.115732  
      29A      0.119633    30A      0.121454    31A      0.135316  
      32A      0.138565    33A      0.141665    34A      0.149163  
      35A      0.154428    36A      0.158896    37A      0.160420  
      38A      0.166667    39A      0.172360    40A      0.175526  
      41A      0.185797    42A      0.188835    43A      0.197105  
      44A      0.206352    45A      0.213434    46A      0.232657  
      47A      0.245753    48A      0.253951    49A      0.265389  
      50A      0.271543    51A      0.275655    52A      0.294328  
      53A      0.299959    54A      0.301775    55A      0.303015  
      56A      0.308647    57A      0.314137    58A      0.322056  
      59A      0.323862    60A      0.332578    61A      0.338706  
      62A      0.340333    63A      0.348485    64A      0.351544  
      65A      0.357030    66A      0.362587    67A      0.367046  
      68A      0.371732    69A      0.376926    70A      0.381467  
      71A      0.387691    72A      0.390755    73A      0.395875  
      74A      0.404640    75A      0.407017    76A      0.409730  
      77A      0.414310    78A      0.420170    79A      0.431517  
      80A      0.434036    81A      0.447415    82A      0.450812  
      83A      0.464670    84A      0.470667    85A      0.474399  
      86A      0.489839    87A      0.496222    88A      0.502630  
      89A      0.505265    90A      0.518445    91A      0.524346  
      92A      0.536648    93A      0.538500    94A      0.546875  
      95A      0.550110    96A      0.552175    97A      0.559260  
      98A      0.565155    99A      0.580321   100A      0.585448  
     101A      0.590471   102A      0.599225   103A      0.606178  
     104A      0.609135   105A      0.617865   106A      0.626144  
     107A      0.631110   108A      0.636602   109A      0.645654  
     110A      0.651550   111A      0.660062   112A      0.673179  
     113A      0.683153   114A      0.687846   115A      0.696290  
     116A      0.701189   117A      0.706995   118A      0.719083  
     119A      0.723342   120A      0.731444   121A      0.751112  
     122A      0.757109   123A      0.761776   124A      0.776237  
     125A      0.789221   126A      0.800742   127A      0.802340  
     128A      0.806091   129A      0.813669   130A      0.820327  
     131A      0.823270   132A      0.829042   133A      0.845550  
     134A      0.853744   135A      0.873207   136A      0.887648  
     137A      0.895197   138A      0.907002   139A      0.917709  
     140A      0.932898   141A      0.939880   142A      0.954585  
     143A      0.992425   144A      1.001121   145A      1.017686  
     146A      1.031330   147A      1.048160   148A      1.071453  
     149A      1.086261   150A      1.103127   151A      1.108616  
     152A      1.123278   153A      1.137980   154A      1.151241  
     155A      1.159347   156A      1.164006   157A      1.174483  
     158A      1.179506   159A      1.196391   160A      1.210338  
     161A      1.213182   162A      1.227673   163A      1.233627  
     164A      1.235322   165A      1.253072   166A      1.265982  
     167A      1.275901   168A      1.286235   169A      1.292233  
     170A      1.297084   171A      1.307330   172A      1.310379  
     173A      1.323639   174A      1.331166   175A      1.337571  
     176A      1.346569   177A      1.354261   178A      1.359771  
     179A      1.364313   180A      1.376392   181A      1.382763  
     182A      1.394486   183A      1.398265   184A      1.405635  
     185A      1.412959   186A      1.418844   187A      1.423615  
     188A      1.436209   189A      1.443420   190A      1.449415  
     191A      1.462902   192A      1.467792   193A      1.475273  
     194A      1.478804   195A      1.496527   196A      1.501507  
     197A      1.508495   198A      1.514340   199A      1.520707  
     200A      1.537023   201A      1.549372   202A      1.551253  
     203A      1.565282   204A      1.566986   205A      1.574245  
     206A      1.587567   207A      1.591254   208A      1.594536  
     209A      1.597889   210A      1.608477   211A      1.612969  
     212A      1.625903   213A      1.632966   214A      1.645990  
     215A      1.656656   216A      1.665513   217A      1.671275  
     218A      1.681303   219A      1.688538   220A      1.702722  
     221A      1.708339   222A      1.716583   223A      1.725406  
     224A      1.743339   225A      1.748667   226A      1.766118  
     227A      1.779910   228A      1.796565   229A      1.804078  
     230A      1.836748   231A      1.847271   232A      1.863982  
     233A      1.872276   234A      1.882934   235A      1.885490  
     236A      1.886023   237A      1.924208   238A      1.937127  
     239A      1.962378   240A      1.971076   241A      1.982490  
     242A      1.992737   243A      1.998331   244A      2.022178  
     245A      2.030191   246A      2.050456   247A      2.098768  
     248A      2.109276   249A      2.137934   250A      2.160710  
     251A      2.184436   252A      2.206717   253A      2.229974  
     254A      2.248026   255A      2.293569   256A      2.339571  
     257A      2.361896   258A      2.404709   259A      2.437078  
     260A      2.442154   261A      2.467320   262A      2.486032  
     263A      2.543103   264A      2.573795   265A      2.619771  
     266A      2.645237   267A      2.661678   268A      2.753494  
     269A      2.765706   270A      2.771540   271A      2.829146  
     272A      2.832919   273A      2.860889   274A      2.898928  
     275A      2.932723   276A      2.939958   277A      2.952581  
     278A      2.974179   279A      2.993593   280A      3.014912  
     281A      3.047096   282A      3.105526   283A      3.109436  
     284A      3.148125   285A      3.166949   286A      3.185189  
     287A      3.228380   288A      3.259109   289A      3.296622  
     290A      3.316424   291A      3.328744   292A      3.332882  
     293A      3.371376   294A      3.388829   295A      3.395240  
     296A      3.425968   297A      3.430779   298A      3.467067  
     299A      3.477439   300A      3.483044   301A      3.488737  
     302A      3.500821   303A      3.502982   304A      3.510318  
     305A      3.515778   306A      3.537497   307A      3.538662  
     308A      3.553117   309A      3.567401   310A      3.583536  
     311A      3.589912   312A      3.601782   313A      3.603415  
     314A      3.617824   315A      3.633518   316A      3.643689  
     317A      3.651434   318A      3.656569   319A      3.671509  
     320A      3.683593   321A      3.695313   322A      3.708376  
     323A      3.731305   324A      3.735216   325A      3.747512  
     326A      3.753186   327A      3.772280   328A      3.778345  
     329A      3.795357   330A      3.797801   331A      3.821468  
     332A      3.824902   333A      3.832972   334A      3.847987  
     335A      3.851305   336A      3.864135   337A      3.870780  
     338A      3.873349   339A      3.892535   340A      3.895838  
     341A      3.910853   342A      3.912600   343A      3.929983  
     344A      3.945647   345A      3.950914   346A      3.969876  
     347A      3.973503   348A      3.978217   349A      3.988477  
     350A      3.993922   351A      4.037414   352A      4.041001  
     353A      4.063100   354A      4.085424   355A      4.093606  
     356A      4.106735   357A      4.131807   358A      4.151428  
     359A      4.156454   360A      4.168469   361A      4.170885  
     362A      4.193464   363A      4.202336   364A      4.206458  
     365A      4.214183   366A      4.222540   367A      4.228802  
     368A      4.233973   369A      4.252192   370A      4.254202  
     371A      4.271554   372A      4.288104   373A      4.306956  
     374A      4.317481   375A      4.326351   376A      4.336213  
     377A      4.348150   378A      4.370250   379A      4.379264  
     380A      4.384906   381A      4.388874   382A      4.403552  
     383A      4.426022   384A      4.432226   385A      4.438638  
     386A      4.444293   387A      4.470124   388A      4.475004  
     389A      4.485673   390A      4.491597   391A      4.497062  
     392A      4.512476   393A      4.518013   394A      4.523488  
     395A      4.535615   396A      4.545699   397A      4.549494  
     398A      4.553295   399A      4.577674   400A      4.586001  
     401A      4.592624   402A      4.598182   403A      4.605979  
     404A      4.618840   405A      4.628455   406A      4.634021  
     407A      4.641534   408A      4.647948   409A      4.666487  
     410A      4.673724   411A      4.683419   412A      4.696929  
     413A      4.707296   414A      4.711578   415A      4.718587  
     416A      4.736709   417A      4.749051   418A      4.757943  
     419A      4.771223   420A      4.777792   421A      4.787703  
     422A      4.791501   423A      4.805459   424A      4.813612  
     425A      4.821338   426A      4.823998   427A      4.839458  
     428A      4.857404   429A      4.871448   430A      4.876211  
     431A      4.889173   432A      4.890590   433A      4.892624  
     434A      4.909229   435A      4.921436   436A      4.926790  
     437A      4.948240   438A      4.959700   439A      4.965697  
     440A      4.975287   441A      4.981507   442A      4.999862  
     443A      5.004795   444A      5.011987   445A      5.018018  
     446A      5.027390   447A      5.037921   448A      5.048780  
     449A      5.073603   450A      5.085488   451A      5.097221  
     452A      5.125656   453A      5.139935   454A      5.161781  
     455A      5.168496   456A      5.181531   457A      5.186816  
     458A      5.206549   459A      5.213135   460A      5.228321  
     461A      5.245311   462A      5.270976   463A      5.277324  
     464A      5.290061   465A      5.312840   466A      5.319382  
     467A      5.322980   468A      5.339350   469A      5.357098  
     470A      5.389376   471A      5.402881   472A      5.426230  
     473A      5.445176   474A      5.461494   475A      5.464823  
     476A      5.477557   477A      5.495471   478A      5.516529  
     479A      5.562594   480A      5.572375   481A      5.591324  
     482A      5.608371   483A      5.647264   484A      5.665468  
     485A      5.687888   486A      5.700263   487A      5.720543  
     488A      5.730376   489A      5.761337   490A      5.769127  
     491A      5.777756   492A      5.786314   493A      5.797180  
     494A      5.824270   495A      5.829699   496A      5.847047  
     497A      5.876200   498A      5.930713   499A      5.937472  
     500A      5.951616   501A      5.962778   502A      5.986813  
     503A      6.006959   504A      6.018291   505A      6.051139  
     506A      6.053161   507A      6.079561   508A      6.108356  
     509A      6.124328   510A      6.220827   511A      6.240029  
     512A      6.280763   513A      6.331213   514A      6.372454  
     515A      6.374143   516A      6.403968   517A      6.445841  
     518A      6.472531   519A      6.480257   520A      6.519724  
     521A      6.538325   522A      6.546343   523A      6.565474  
     524A      6.615329   525A      6.649321   526A      6.693049  
     527A      6.745314   528A      6.785393   529A      6.823986  
     530A      6.938833   531A      7.031245   532A      7.112873  
     533A      7.321135   534A      7.413122   535A      7.477097  
     536A      7.537364   537A      7.592010   538A      7.650523  
     539A      7.704182   540A      7.710649   541A      7.751030  
     542A      7.829766   543A      7.882394   544A      7.907341  
     545A      7.986109   546A      8.058856   547A      8.159066  
     548A      8.302348   549A      8.376742   550A      8.620567  
     551A      8.849244   552A      9.441109   553A      9.662007  
     554A      9.763422   555A      9.924321   556A     10.216851  
     557A     13.984164   558A     14.534364   559A     14.698227  
     560A     41.043541   561A     44.130458   562A     45.706168  
     563A     45.963567   564A     47.210665  

    Final Occupation by Irrep:
              A 
    DOCC [    13 ]

  @DF-RHF Final Energy:  -118.30809552419157

   => Energetics <=

    Nuclear Repulsion Energy =             82.8168999022038008
    One-Electron Energy =                -321.9880842996406045
    Two-Electron Energy =                 120.8630888732452320
    Total Energy =                       -118.3080955241915717

Computation Completed


Properties will be evaluated at   0.000000,   0.000000,   0.000000 [a0]

Properties computed using the SCF density matrix

  Nuclear Dipole Moment: [e a0]
     X:  -113.5897      Y:   -17.7813      Z:     0.1231

  Electronic Dipole Moment: [e a0]
     X:   113.6016      Y:    17.7756      Z:    -0.1532

  Dipole Moment: [e a0]
     X:     0.0119      Y:    -0.0057      Z:    -0.0301     Total:     0.0329

  Dipole Moment: [D]
     X:     0.0303      Y:    -0.0145      Z:    -0.0766     Total:     0.0836


*** tstop() called on r282 at Fri Sep 10 22:03:22 2021
Module time:
	user time   =      51.20 seconds =       0.85 minutes
	system time =       0.81 seconds =       0.01 minutes
	total time  =         52 seconds =       0.87 minutes
Total time:
	user time   =     138.18 seconds =       2.30 minutes
	system time =       2.80 seconds =       0.05 minutes
	total time  =        142 seconds =       2.37 minutes

  //>>>>>>>>>>>>>>>>>>>>>>>>>>>>>>>>>>>//
  //            Monomer B HF           //
  //<<<<<<<<<<<<<<<<<<<<<<<<<<<<<<<<<<<//


*** tstart() called on r282
*** at Fri Sep 10 22:03:22 2021

   => Loading Basis Set <=

    Name: JUN-CC-PVTZ
    Role: ORBITAL
    Keyword: BASIS
    atoms 1-3, 12-16  entry C          line   217 file /home/r08543048/miniconda3/share/psi4/basis/jun-cc-pvtz.gbs 
    atoms 4-11, 17-26 entry H          line    36 file /home/r08543048/miniconda3/share/psi4/basis/jun-cc-pvtz.gbs 


         ---------------------------------------------------------
                                   SCF
               by Justin Turney, Rob Parrish, Andy Simmonett
                          and Daniel G. A. Smith
                              RHF Reference
                        1 Threads,  20980 MiB Core
         ---------------------------------------------------------

  ==> Geometry <==

    Molecular point group: c1
    Full point group: C1

    Geometry (in Angstrom), charge = 0, multiplicity = 1:

       Center              X                  Y                   Z               Mass       
    ------------   -----------------  -----------------  -----------------  -----------------
      Gh(C)          -2.052584636471    -1.479786632645     0.590878091695    12.000000000000
      Gh(C)          -2.107170636471    -0.463669632645    -0.542914908305    12.000000000000
      Gh(C)          -2.752146636471     0.845678367355    -0.105001908305    12.000000000000
      Gh(H)          -1.474424636471    -1.092149632645     1.431070091695     1.007825032230
      Gh(H)          -3.056628636471    -1.705745632645     0.953423091695     1.007825032230
      Gh(H)          -1.588165636471    -2.413230632645     0.274068091695     1.007825032230
      Gh(H)          -2.664692636471    -0.882059632645    -1.383690908305     1.007825032230
      Gh(H)          -1.096068636471    -0.270407632645    -0.908082908305     1.007825032230
      Gh(H)          -2.788851636471     1.570427367355    -0.918286908305     1.007825032230
      Gh(H)          -3.773154636471     0.675355367355     0.239694091695     1.007825032230
      Gh(H)          -2.195699636471     1.295014367355     0.719156091695     1.007825032230
         C            1.654976363529    -2.181393632645    -0.272151908305    12.000000000000
         C            2.141933363529    -1.018042632645     0.169203091695    12.000000000000
         C            1.807850363529     0.316096367355    -0.415608908305    12.000000000000
         C            1.076116363529     1.214495367355     0.583223091695    12.000000000000
         C            0.682027363529     2.550814367355    -0.031727908305    12.000000000000
         H            0.988440363529    -2.217488632645    -1.125234908305     1.007825032230
         H            1.911902363529    -3.117644632645     0.203561091695     1.007825032230
         H            2.804917363529    -1.019547632645     1.030090091695     1.007825032230
         H            2.723529363529     0.823319367355    -0.735783908305     1.007825032230
         H            1.190777363529     0.179345367355    -1.307915908305     1.007825032230
         H            0.187432363529     0.691171367355     0.942830091695     1.007825032230
         H            1.716029363529     1.376837367355     1.454346091695     1.007825032230
         H            1.561827363529     3.088522367355    -0.387838908305     1.007825032230
         H            0.015491363529     2.400783367355    -0.882302908305     1.007825032230
         H            0.167336363529     3.187087367355     0.687868091695     1.007825032230

  Running in c1 symmetry.

  Rotational constants: A =      0.05704  B =      0.03750  C =      0.02472 [cm^-1]
  Rotational constants: A =   1709.87817  B =   1124.17454  C =    741.09969 [MHz]
  Nuclear repulsion =  170.620916852076675

  Charge       = 0
  Multiplicity = 1
  Electrons    = 40
  Nalpha       = 20
  Nbeta        = 20

  ==> Algorithm <==

  SCF Algorithm Type is DF.
  DIIS enabled.
  MOM disabled.
  Fractional occupation disabled.
  Guess Type is SAD.
  Energy threshold   = 1.00e-08
  Density threshold  = 1.00e-08
  Integral threshold = 0.00e+00

  ==> Primary Basis <==

  Basis Set: JUN-CC-PVTZ
    Blend: JUN-CC-PVTZ
    Number of shells: 212
    Number of basis function: 564
    Number of Cartesian functions: 630
    Spherical Harmonics?: true
    Max angular momentum: 3

   => Loading Basis Set <=

    Name: (JUN-CC-PVTZ AUX)
    Role: JKFIT
    Keyword: DF_BASIS_SCF
    atoms 1-3, 12-16  entry C          line   152 file /home/r08543048/miniconda3/share/psi4/basis/jun-cc-pvtz-jkfit.gbs 
    atoms 4-11, 17-26 entry H          line    70 file /home/r08543048/miniconda3/share/psi4/basis/jun-cc-pvtz-jkfit.gbs 

  ==> Pre-Iterations <==

   -------------------------------------------------------
    Irrep   Nso     Nmo     Nalpha   Nbeta   Ndocc  Nsocc
   -------------------------------------------------------
     A        564     564       0       0       0       0
   -------------------------------------------------------
    Total     564     564      20      20      20       0
   -------------------------------------------------------

  ==> Integral Setup <==

  ==> DiskDFJK: Density-Fitted J/K Matrices <==

    J tasked:                  Yes
    K tasked:                  Yes
    wK tasked:                  No
    OpenMP threads:              1
    Integrals threads:           1
    Memory [MiB]:            15735
    Algorithm:                Core
    Integral Cache:           LOAD
    Schwarz Cutoff:          1E-12
    Fitting Condition:       1E-10

   => Auxiliary Basis Set <=

  Basis Set: (JUN-CC-PVTZ AUX)
    Blend: JUN-CC-PVTZ-JKFIT
    Number of shells: 412
    Number of basis function: 1300
    Number of Cartesian functions: 1558
    Spherical Harmonics?: true
    Max angular momentum: 4

  Minimum eigenvalue in the overlap matrix is 3.0687073480E-05.
  Using Symmetric Orthogonalization.

  SCF Guess: Superposition of Atomic Densities via on-the-fly atomic UHF.

  ==> Iterations <==

                           Total Energy        Delta E     RMS |[F,P]|

   @DF-RHF iter SAD:  -194.45502194071182   -1.94455e+02   0.00000e+00 
   @DF-RHF iter   1:  -194.99836775045767   -5.43346e-01   1.03536e-03 DIIS
   @DF-RHF iter   2:  -195.17512990150925   -1.76762e-01   4.55404e-04 DIIS
   @DF-RHF iter   3:  -195.20975215181863   -3.46223e-02   8.75597e-05 DIIS
   @DF-RHF iter   4:  -195.21209286224067   -2.34071e-03   2.91936e-05 DIIS
   @DF-RHF iter   5:  -195.21226057446302   -1.67712e-04   6.09463e-06 DIIS
   @DF-RHF iter   6:  -195.21227103523151   -1.04608e-05   1.40602e-06 DIIS
   @DF-RHF iter   7:  -195.21227154294604   -5.07715e-07   3.82644e-07 DIIS
   @DF-RHF iter   8:  -195.21227158469435   -4.17483e-08   8.58412e-08 DIIS
   @DF-RHF iter   9:  -195.21227158759007   -2.89572e-09   2.75283e-08 DIIS
   @DF-RHF iter  10:  -195.21227158794483   -3.54760e-10   9.43662e-09 DIIS
  Energy and wave function converged.


  ==> Post-Iterations <==

    Orbital Energies [Eh]
    ---------------------

    Doubly Occupied:                                                      

       1A    -11.230739     2A    -11.221931     3A    -11.219375  
       4A    -11.217126     5A    -11.211574     6A     -1.089718  
       7A     -1.021996     8A     -0.922542     9A     -0.811716  
      10A     -0.756749    11A     -0.651464    12A     -0.616222  
      13A     -0.590404    14A     -0.567098    15A     -0.536603  
      16A     -0.512012    17A     -0.483183    18A     -0.472912  
      19A     -0.469876    20A     -0.356164  

    Virtual:                                                              

      21A      0.033673    22A      0.046894    23A      0.051171  
      24A      0.054484    25A      0.065613    26A      0.068308  
      27A      0.072725    28A      0.079024    29A      0.085406  
      30A      0.098287    31A      0.100117    32A      0.105662  
      33A      0.113655    34A      0.115493    35A      0.117458  
      36A      0.120307    37A      0.124638    38A      0.131692  
      39A      0.140594    40A      0.148245    41A      0.150682  
      42A      0.157874    43A      0.160030    44A      0.161754  
      45A      0.169204    46A      0.178134    47A      0.185697  
      48A      0.190018    49A      0.196440    50A      0.199517  
      51A      0.209842    52A      0.216601    53A      0.218061  
      54A      0.241484    55A      0.246064    56A      0.257558  
      57A      0.264675    58A      0.272333    59A      0.279507  
      60A      0.287231    61A      0.295073    62A      0.303233  
      63A      0.310107    64A      0.314376    65A      0.317284  
      66A      0.322163    67A      0.331031    68A      0.334898  
      69A      0.342564    70A      0.348111    71A      0.353255  
      72A      0.356554    73A      0.361907    74A      0.368871  
      75A      0.372706    76A      0.378487    77A      0.385247  
      78A      0.387961    79A      0.393657    80A      0.398909  
      81A      0.402097    82A      0.409051    83A      0.416666  
      84A      0.418767    85A      0.423176    86A      0.427053  
      87A      0.446126    88A      0.449944    89A      0.457440  
      90A      0.465903    91A      0.471576    92A      0.474704  
      93A      0.483854    94A      0.489006    95A      0.493711  
      96A      0.507296    97A      0.509932    98A      0.519382  
      99A      0.525688   100A      0.532636   101A      0.541932  
     102A      0.548320   103A      0.551580   104A      0.559256  
     105A      0.562397   106A      0.567493   107A      0.576024  
     108A      0.581601   109A      0.588352   110A      0.593103  
     111A      0.599173   112A      0.607327   113A      0.608445  
     114A      0.611050   115A      0.627483   116A      0.638278  
     117A      0.643031   118A      0.651046   119A      0.657698  
     120A      0.670710   121A      0.677195   122A      0.683498  
     123A      0.694499   124A      0.702043   125A      0.721296  
     126A      0.722592   127A      0.736907   128A      0.745939  
     129A      0.754949   130A      0.767307   131A      0.770868  
     132A      0.780730   133A      0.794473   134A      0.806307  
     135A      0.816026   136A      0.827418   137A      0.834313  
     138A      0.843070   139A      0.850238   140A      0.858526  
     141A      0.862133   142A      0.877447   143A      0.885864  
     144A      0.890171   145A      0.899618   146A      0.913925  
     147A      0.929927   148A      0.940120   149A      0.952191  
     150A      0.971335   151A      0.985781   152A      1.003194  
     153A      1.021387   154A      1.033744   155A      1.040707  
     156A      1.051025   157A      1.058761   158A      1.072162  
     159A      1.085970   160A      1.093171   161A      1.102661  
     162A      1.110379   163A      1.120657   164A      1.143353  
     165A      1.149696   166A      1.154970   167A      1.158116  
     168A      1.177355   169A      1.187518   170A      1.190444  
     171A      1.194809   172A      1.211823   173A      1.216902  
     174A      1.222883   175A      1.237466   176A      1.243052  
     177A      1.256998   178A      1.264305   179A      1.280321  
     180A      1.288376   181A      1.291277   182A      1.297152  
     183A      1.301731   184A      1.316226   185A      1.321208  
     186A      1.331713   187A      1.336181   188A      1.341568  
     189A      1.355376   190A      1.367240   191A      1.373098  
     192A      1.378679   193A      1.396266   194A      1.406700  
     195A      1.413369   196A      1.421196   197A      1.427383  
     198A      1.443171   199A      1.453578   200A      1.455837  
     201A      1.464556   202A      1.472747   203A      1.477675  
     204A      1.490629   205A      1.495758   206A      1.500777  
     207A      1.521325   208A      1.529634   209A      1.540977  
     210A      1.555435   211A      1.558643   212A      1.567902  
     213A      1.574035   214A      1.576792   215A      1.585989  
     216A      1.600467   217A      1.606664   218A      1.615018  
     219A      1.618925   220A      1.626396   221A      1.639973  
     222A      1.644496   223A      1.654201   224A      1.662699  
     225A      1.680217   226A      1.682429   227A      1.696849  
     228A      1.714472   229A      1.725688   230A      1.740026  
     231A      1.752632   232A      1.755859   233A      1.768734  
     234A      1.782601   235A      1.793535   236A      1.798832  
     237A      1.805182   238A      1.811425   239A      1.851095  
     240A      1.854782   241A      1.878950   242A      1.882803  
     243A      1.894301   244A      1.916956   245A      1.929818  
     246A      1.940624   247A      1.956260   248A      1.972014  
     249A      1.996709   250A      2.010550   251A      2.023712  
     252A      2.034406   253A      2.044435   254A      2.079635  
     255A      2.110244   256A      2.125355   257A      2.143338  
     258A      2.170388   259A      2.192840   260A      2.213093  
     261A      2.228890   262A      2.279654   263A      2.340712  
     264A      2.402320   265A      2.412146   266A      2.421070  
     267A      2.463009   268A      2.501344   269A      2.589747  
     270A      2.602987   271A      2.623958   272A      2.721176  
     273A      2.772713   274A      2.784817   275A      2.810325  
     276A      2.826643   277A      2.850879   278A      2.855564  
     279A      2.869015   280A      2.875722   281A      2.893558  
     282A      2.917050   283A      2.938196   284A      2.970313  
     285A      3.001471   286A      3.003247   287A      3.016095  
     288A      3.048775   289A      3.053966   290A      3.085596  
     291A      3.102105   292A      3.139048   293A      3.149818  
     294A      3.161502   295A      3.175360   296A      3.187684  
     297A      3.198105   298A      3.216464   299A      3.237336  
     300A      3.257365   301A      3.258370   302A      3.290402  
     303A      3.296947   304A      3.322319   305A      3.344982  
     306A      3.351422   307A      3.376241   308A      3.380260  
     309A      3.389731   310A      3.395223   311A      3.406907  
     312A      3.415472   313A      3.443620   314A      3.464027  
     315A      3.467709   316A      3.480558   317A      3.497393  
     318A      3.503232   319A      3.510315   320A      3.523995  
     321A      3.531601   322A      3.533156   323A      3.551525  
     324A      3.556467   325A      3.564135   326A      3.576549  
     327A      3.581767   328A      3.584766   329A      3.595496  
     330A      3.600969   331A      3.604488   332A      3.610765  
     333A      3.625820   334A      3.634649   335A      3.646037  
     336A      3.647115   337A      3.656842   338A      3.674214  
     339A      3.689684   340A      3.720047   341A      3.730315  
     342A      3.737192   343A      3.746884   344A      3.752458  
     345A      3.772783   346A      3.775481   347A      3.791508  
     348A      3.804229   349A      3.808976   350A      3.821760  
     351A      3.838448   352A      3.846009   353A      3.859412  
     354A      3.866034   355A      3.872443   356A      3.892301  
     357A      3.902415   358A      3.908743   359A      3.924727  
     360A      3.935831   361A      3.936766   362A      3.951679  
     363A      3.965412   364A      3.977618   365A      3.982975  
     366A      3.997484   367A      4.009618   368A      4.015319  
     369A      4.034603   370A      4.042751   371A      4.067260  
     372A      4.091529   373A      4.108856   374A      4.120792  
     375A      4.134743   376A      4.148313   377A      4.165212  
     378A      4.174390   379A      4.183229   380A      4.193943  
     381A      4.203140   382A      4.210445   383A      4.225322  
     384A      4.237236   385A      4.245926   386A      4.251279  
     387A      4.262124   388A      4.280812   389A      4.300537  
     390A      4.323850   391A      4.334349   392A      4.343430  
     393A      4.346560   394A      4.361322   395A      4.362476  
     396A      4.375648   397A      4.381902   398A      4.388740  
     399A      4.397930   400A      4.404211   401A      4.419412  
     402A      4.433885   403A      4.448325   404A      4.453746  
     405A      4.463562   406A      4.474269   407A      4.489080  
     408A      4.493137   409A      4.506816   410A      4.509344  
     411A      4.515542   412A      4.523051   413A      4.537738  
     414A      4.544525   415A      4.562349   416A      4.572224  
     417A      4.580949   418A      4.599477   419A      4.609784  
     420A      4.614387   421A      4.624260   422A      4.628805  
     423A      4.638555   424A      4.648133   425A      4.661473  
     426A      4.683461   427A      4.710666   428A      4.714642  
     429A      4.717515   430A      4.725984   431A      4.735974  
     432A      4.740456   433A      4.761854   434A      4.767568  
     435A      4.786510   436A      4.792645   437A      4.802770  
     438A      4.812615   439A      4.823372   440A      4.827915  
     441A      4.842243   442A      4.848236   443A      4.860806  
     444A      4.862700   445A      4.879262   446A      4.897221  
     447A      4.903995   448A      4.911624   449A      4.921476  
     450A      4.934584   451A      4.937612   452A      4.952578  
     453A      4.957904   454A      4.962785   455A      4.970582  
     456A      4.982803   457A      5.000105   458A      5.011421  
     459A      5.021346   460A      5.024154   461A      5.042513  
     462A      5.055907   463A      5.071344   464A      5.081933  
     465A      5.085745   466A      5.128721   467A      5.136429  
     468A      5.144010   469A      5.160359   470A      5.175319  
     471A      5.189764   472A      5.203382   473A      5.230025  
     474A      5.252854   475A      5.259226   476A      5.265011  
     477A      5.287663   478A      5.290121   479A      5.297403  
     480A      5.319493   481A      5.348213   482A      5.372987  
     483A      5.388659   484A      5.394581   485A      5.409691  
     486A      5.434659   487A      5.447772   488A      5.461389  
     489A      5.474045   490A      5.501546   491A      5.520718  
     492A      5.572751   493A      5.606419   494A      5.623904  
     495A      5.626786   496A      5.631840   497A      5.635064  
     498A      5.637208   499A      5.650909   500A      5.668505  
     501A      5.718935   502A      5.761468   503A      5.783082  
     504A      5.804637   505A      5.831131   506A      5.833946  
     507A      5.875277   508A      5.916546   509A      5.934440  
     510A      5.935653   511A      5.949099   512A      5.980694  
     513A      5.987590   514A      6.019786   515A      6.028229  
     516A      6.066137   517A      6.135528   518A      6.199954  
     519A      6.208500   520A      6.222537   521A      6.260200  
     522A      6.353929   523A      6.366284   524A      6.393586  
     525A      6.411664   526A      6.428224   527A      6.449773  
     528A      6.491161   529A      6.496224   530A      6.508183  
     531A      6.541875   532A      6.549271   533A      6.602348  
     534A      6.615068   535A      6.655779   536A      6.717212  
     537A      6.766526   538A      6.904503   539A      7.010737  
     540A      7.307760   541A      7.486937   542A      7.571922  
     543A      7.600223   544A      7.638739   545A      7.694048  
     546A      7.700796   547A      7.812325   548A      7.833032  
     549A      7.869102   550A      7.913466   551A      8.055160  
     552A      8.241020   553A      8.509190   554A      9.610208  
     555A      9.915022   556A      9.931643   557A     12.328047  
     558A     13.840245   559A     14.467665   560A     14.649768  
     561A     15.359887   562A     44.515470   563A     45.479037  
     564A     45.859582  

    Final Occupation by Irrep:
              A 
    DOCC [    20 ]

  @DF-RHF Final Energy:  -195.21227158794483

   => Energetics <=

    Nuclear Repulsion Energy =            170.6209168520766752
    One-Electron Energy =                -599.7475775623528307
    Two-Electron Energy =                 233.9143891223313290
    Total Energy =                       -195.2122715879448265

Computation Completed


Properties will be evaluated at   0.000000,   0.000000,   0.000000 [a0]

Properties computed using the SCF density matrix

  Nuclear Dipole Moment: [e a0]
     X:   108.5555      Y:    20.1902      Z:     0.1460

  Electronic Dipole Moment: [e a0]
     X:  -108.5615      Y:   -20.0148      Z:    -0.1095

  Dipole Moment: [e a0]
     X:    -0.0059      Y:     0.1754      Z:     0.0365     Total:     0.1793

  Dipole Moment: [D]
     X:    -0.0151      Y:     0.4459      Z:     0.0928     Total:     0.4557


*** tstop() called on r282 at Fri Sep 10 22:04:21 2021
Module time:
	user time   =      58.81 seconds =       0.98 minutes
	system time =       0.92 seconds =       0.02 minutes
	total time  =         59 seconds =       0.98 minutes
Total time:
	user time   =     196.99 seconds =       3.28 minutes
	system time =       3.72 seconds =       0.06 minutes
	total time  =        201 seconds =       3.35 minutes
  Constructing Basis Sets for SAPT...

   => Loading Basis Set <=

    Name: (JUN-CC-PVTZ AUX)
    Role: RIFIT
    Keyword: DF_BASIS_SAPT
    atoms 1-3, 12-16  entry C          line   132 file /home/r08543048/miniconda3/share/psi4/basis/jun-cc-pvtz-ri.gbs 
    atoms 4-11, 17-26 entry H          line    30 file /home/r08543048/miniconda3/share/psi4/basis/jun-cc-pvtz-ri.gbs 


  //>>>>>>>>>>>>>>>>>>>>>>>>>>>>>>>>>>>//
  //               SAPT0               //
  //<<<<<<<<<<<<<<<<<<<<<<<<<<<<<<<<<<<//


*** tstart() called on r282
*** at Fri Sep 10 22:04:22 2021

        SAPT0  
    Ed Hohenstein
     6 June 2009

      Orbital Information
  --------------------------
    NSO        =       564
    NMO        =       564
    NRI        =      1316
    NOCC A     =        13
    NOCC B     =        20
    FOCC A     =         0
    FOCC B     =         0
    NVIR A     =       551
    NVIR B     =       544

    Elst10,r            =    -0.001779689418 [Eh]
    Exch10              =     0.006155924070 [Eh]
    Exch10 (S^2)        =     0.006144657507 [Eh]

    Iter     Energy [mEh]          dE [mEh]         Residual      Time [s]
       1      -0.41352008       0.413520084       2.708387859             1
       2      -0.50531863       0.091798550       0.629891832             2
       3      -0.50668593       0.001367293       0.199621484             4
       4      -0.50493798      -0.001747946       0.044455804             5
       5      -0.50503817       0.000100189       0.010285232             6
       6      -0.50508360       0.000045427       0.002528529             8
       7      -0.50508251      -0.000001083       0.000624293             9
       8      -0.50507985      -0.000002665       0.000148790            10
       9      -0.50508000       0.000000146       0.000034177            12
      10      -0.50508010       0.000000106       0.000009043            13
      11      -0.50508010      -0.000000002       0.000002236            14
      12      -0.50508009      -0.000000008       0.000000494            16

    CHF Iterations converged


    Iter     Energy [mEh]          dE [mEh]         Residual      Time [s]
       1      -0.57180561       0.571805613       2.961555170             1
       2      -0.70457284       0.132767228       0.513159273             3
       3      -0.70304705      -0.001525786       0.187493066             4
       4      -0.70160438      -0.001442677       0.049400808             6
       5      -0.70172606       0.000121679       0.015965520             7
       6      -0.70182721       0.000101158       0.004078878             9
       7      -0.70182245      -0.000004768       0.001376200            10
       8      -0.70181510      -0.000007344       0.000482871            12
       9      -0.70181662       0.000001520       0.000164828            13
      10      -0.70181703       0.000000412       0.000046947            15
      11      -0.70181687      -0.000000160       0.000010897            16
      12      -0.70181687       0.000000001       0.000002805            18
      13      -0.70181688       0.000000007       0.000000727            19

    CHF Iterations converged

    Ind20,r (A<-B)      =    -0.000505080092 [Eh]
    Ind20,r (B<-A)      =    -0.000701816881 [Eh]
    Ind20,r             =    -0.001206896973 [Eh]
    Exch-Ind20,r (A<-B) =     0.000422188713 [Eh]
    Exch-Ind20,r (B<-A) =     0.000660249129 [Eh]
    Exch-Ind20,r        =     0.001082437843 [Eh]
    Disp20              =    -0.008714370857 [Eh]
    Disp20 (SS)         =    -0.004357185428 [Eh]
    Disp20 (OS)         =    -0.004357185428 [Eh]
    Exch-Disp20         =     0.000736792680 [Eh]
    Exch-Disp20 (SS)    =     0.000481868737 [Eh]
    Exch-Disp20 (OS)    =     0.000254923943 [Eh]

    SAPT Results 
  --------------------------------------------------------------------------------------------------------
    Electrostatics                 -1.77968942 [mEh]      -1.11677197 [kcal/mol]      -4.67257392 [kJ/mol]
      Elst10,r                     -1.77968942 [mEh]      -1.11677197 [kcal/mol]      -4.67257392 [kJ/mol]

    Exchange                        6.15592407 [mEh]       3.86290067 [kcal/mol]      16.16237642 [kJ/mol]
      Exch10                        6.15592407 [mEh]       3.86290067 [kcal/mol]      16.16237642 [kJ/mol]
      Exch10(S^2)                   6.14465751 [mEh]       3.85583080 [kcal/mol]      16.13279606 [kJ/mol]

    Induction                      -0.55676808 [mEh]      -0.34937724 [kcal/mol]      -1.46179439 [kJ/mol]
      Ind20,r                      -1.20689697 [mEh]      -0.75733928 [kcal/mol]      -3.16870757 [kJ/mol]
      Exch-Ind20,r                  1.08243784 [mEh]       0.67924000 [kcal/mol]       2.84194016 [kJ/mol]
      delta HF,r (2)               -0.43230895 [mEh]      -0.27127796 [kcal/mol]      -1.13502699 [kJ/mol]

    Dispersion                     -7.97757818 [mEh]      -5.00600588 [kcal/mol]     -20.94512862 [kJ/mol]
      Disp20                       -8.71437086 [mEh]      -5.46835027 [kcal/mol]     -22.87957753 [kJ/mol]
      Exch-Disp20                   0.73679268 [mEh]       0.46234439 [kcal/mol]       1.93444892 [kJ/mol]
      Disp20 (SS)                  -4.35718543 [mEh]      -2.73417514 [kcal/mol]     -11.43978877 [kJ/mol]
      Disp20 (OS)                  -4.35718543 [mEh]      -2.73417514 [kcal/mol]     -11.43978877 [kJ/mol]
      Exch-Disp20 (SS)              0.48186874 [mEh]       0.30237720 [kcal/mol]       1.26514619 [kJ/mol]
      Exch-Disp20 (OS)              0.25492394 [mEh]       0.15996719 [kcal/mol]       0.66930272 [kJ/mol]

  Total HF                          3.81946657 [mEh]       2.39675146 [kcal/mol]      10.02800811 [kJ/mol]
  Total SAPT0                      -4.15811160 [mEh]      -2.60925442 [kcal/mol]     -10.91712051 [kJ/mol]

  Special recipe for scaled SAPT0 (see Manual):
    Electrostatics sSAPT0          -1.77968942 [mEh]      -1.11677197 [kcal/mol]      -4.67257392 [kJ/mol]
    Exchange sSAPT0                 6.15592407 [mEh]       3.86290067 [kcal/mol]      16.16237642 [kJ/mol]
    Induction sSAPT0               -0.55080303 [mEh]      -0.34563412 [kcal/mol]      -1.44613315 [kJ/mol]
    Dispersion sSAPT0              -7.97351789 [mEh]      -5.00345802 [kcal/mol]     -20.93446834 [kJ/mol]
  Total sSAPT0                     -4.14808627 [mEh]      -2.60296343 [kcal/mol]     -10.89079900 [kJ/mol]
  --------------------------------------------------------------------------------------------------------

*** tstop() called on r282 at Fri Sep 10 22:07:13 2021
Module time:
	user time   =     148.56 seconds =       2.48 minutes
	system time =      22.77 seconds =       0.38 minutes
	total time  =        171 seconds =       2.85 minutes
Total time:
	user time   =     345.73 seconds =       5.76 minutes
	system time =      26.49 seconds =       0.44 minutes
	total time  =        373 seconds =       6.22 minutes

    Psi4 stopped on: Friday, 10 September 2021 10:07PM
    Psi4 wall time for execution: 0:06:12.72

*** Psi4 exiting successfully. Buy a developer a beer!
