
    -----------------------------------------------------------------------
          Psi4: An Open-Source Ab Initio Electronic Structure Package
                               Psi4 1.3.2 release

                         Git: Rev {HEAD} ecbda83 


    R. M. Parrish, L. A. Burns, D. G. A. Smith, A. C. Simmonett,
    A. E. DePrince III, E. G. Hohenstein, U. Bozkaya, A. Yu. Sokolov,
    R. Di Remigio, R. M. Richard, J. F. Gonthier, A. M. James,
    H. R. McAlexander, A. Kumar, M. Saitow, X. Wang, B. P. Pritchard,
    P. Verma, H. F. Schaefer III, K. Patkowski, R. A. King, E. F. Valeev,
    F. A. Evangelista, J. M. Turney, T. D. Crawford, and C. D. Sherrill,
    J. Chem. Theory Comput. 13(7) pp 3185--3197 (2017).
    (doi: 10.1021/acs.jctc.7b00174)


                         Additional Contributions by
    P. Kraus, H. Kruse, M. H. Lechner, M. C. Schieber, R. A. Shaw,
    A. Alenaizan, R. Galvelis, Z. L. Glick, S. Lehtola, and J. P. Misiewicz

    -----------------------------------------------------------------------


    Psi4 started on: Friday, 10 September 2021 09:40PM

    Process ID: 57212
    Host:       r282
    PSIDATADIR: /home/r08543048/miniconda3/share/psi4
    Memory:     500.0 MiB
    Threads:    1
    
  ==> Input File <==

--------------------------------------------------------------------------
# Any line starting with the # character is a comment line
#! Sample  computation

memory 22 gb

molecule Dimer {
0 1
 C  2.800950    0.758739   -0.251901
 C  2.084141   -0.547949   -0.567478
 C  1.790847   -1.349148    0.694474
 H  2.192604    1.375419    0.410903
 H  3.752001    0.566877    0.247327
 H  3.005768    1.334874   -1.154229
 H  2.691909   -1.146053   -1.249935
 H  1.148606   -0.332597   -1.087660
 H  1.290916   -2.291476    0.469074
 H  2.714129   -1.579966    1.228333
 H  1.150250   -0.777598    1.367986



 






 --
0 1
 C -0.774283    1.848336    0.159145
 C -1.299115    0.687844    0.563261
 C -1.719485   -0.420589   -0.347557
 C -3.212743   -0.723080   -0.217076
 H -0.505122    2.622009    0.864853
 H -0.602506    2.045943   -0.891890
 H -1.459424    0.526615    1.626183
 H -1.478652   -0.153555   -1.378673
 H -1.149321   -1.322407   -0.107470
 H -3.463905   -0.990470    0.809748
 H -3.805360    0.149467   -0.490246
 H -3.503762   -1.551996   -0.861517









units angstrom

no_reorient
symmetry c1
}

set globals{
  basis jun-cc-pvtz
}

energy('sapt0')


--------------------------------------------------------------------------

  Memory set to  20.489 GiB by Python driver.

  //>>>>>>>>>>>>>>>>>>>>>>>>>>>>>>>>>>>//
  //              Dimer HF             //
  //<<<<<<<<<<<<<<<<<<<<<<<<<<<<<<<<<<<//


*** tstart() called on r282
*** at Fri Sep 10 21:40:00 2021

   => Loading Basis Set <=

    Name: JUN-CC-PVTZ
    Role: ORBITAL
    Keyword: BASIS
    atoms 1-3, 12-15  entry C          line   217 file /home/r08543048/miniconda3/share/psi4/basis/jun-cc-pvtz.gbs 
    atoms 4-11, 16-23 entry H          line    36 file /home/r08543048/miniconda3/share/psi4/basis/jun-cc-pvtz.gbs 


         ---------------------------------------------------------
                                   SCF
               by Justin Turney, Rob Parrish, Andy Simmonett
                          and Daniel G. A. Smith
                              RHF Reference
                        1 Threads,  20980 MiB Core
         ---------------------------------------------------------

  ==> Geometry <==

    Molecular point group: c1
    Full point group: C1

    Geometry (in Angstrom), charge = 0, multiplicity = 1:

       Center              X                  Y                   Z               Mass       
    ------------   -----------------  -----------------  -----------------  -----------------
         C            2.820551918908     0.743628024032    -0.253855151412    12.000000000000
         C            2.103742918908    -0.563059975968    -0.569432151412    12.000000000000
         C            1.810448918908    -1.364258975968     0.692519848588    12.000000000000
         H            2.212205918908     1.360308024032     0.408948848588     1.007825032230
         H            3.771602918908     0.551766024032     0.245372848588     1.007825032230
         H            3.025369918908     1.319763024032    -1.156183151412     1.007825032230
         H            2.711510918908    -1.161163975968    -1.251889151412     1.007825032230
         H            1.168207918908    -0.347707975968    -1.089614151412     1.007825032230
         H            1.310517918908    -2.306586975968     0.467119848588     1.007825032230
         H            2.733730918908    -1.595076975968     1.226378848588     1.007825032230
         H            1.169851918908    -0.792708975968     1.366031848588     1.007825032230
         C           -0.754681081092     1.833225024032     0.157190848588    12.000000000000
         C           -1.279513081092     0.672733024032     0.561306848588    12.000000000000
         C           -1.699883081092    -0.435699975968    -0.349511151412    12.000000000000
         C           -3.193141081092    -0.738190975968    -0.219030151412    12.000000000000
         H           -0.485520081092     2.606898024032     0.862898848588     1.007825032230
         H           -0.582904081092     2.030832024032    -0.893844151412     1.007825032230
         H           -1.439822081092     0.511504024032     1.624228848588     1.007825032230
         H           -1.459050081092    -0.168665975968    -1.380627151412     1.007825032230
         H           -1.129719081092    -1.337517975968    -0.109424151412     1.007825032230
         H           -3.444303081092    -1.005580975968     0.807793848588     1.007825032230
         H           -3.785758081092     0.134356024032    -0.492200151412     1.007825032230
         H           -3.484160081092    -1.567106975968    -0.863471151412     1.007825032230

  Running in c1 symmetry.

  Rotational constants: A =      0.11225  B =      0.03396  C =      0.02896 [cm^-1]
  Rotational constants: A =   3365.04338  B =   1018.04653  C =    868.32015 [MHz]
  Nuclear repulsion =  301.923914041515388

  Charge       = 0
  Multiplicity = 1
  Electrons    = 58
  Nalpha       = 29
  Nbeta        = 29

  ==> Algorithm <==

  SCF Algorithm Type is DF.
  DIIS enabled.
  MOM disabled.
  Fractional occupation disabled.
  Guess Type is SAD.
  Energy threshold   = 1.00e-08
  Density threshold  = 1.00e-08
  Integral threshold = 0.00e+00

  ==> Primary Basis <==

  Basis Set: JUN-CC-PVTZ
    Blend: JUN-CC-PVTZ
    Number of shells: 187
    Number of basis function: 497
    Number of Cartesian functions: 555
    Spherical Harmonics?: true
    Max angular momentum: 3

   => Loading Basis Set <=

    Name: (JUN-CC-PVTZ AUX)
    Role: JKFIT
    Keyword: DF_BASIS_SCF
    atoms 1-3, 12-15  entry C          line   152 file /home/r08543048/miniconda3/share/psi4/basis/jun-cc-pvtz-jkfit.gbs 
    atoms 4-11, 16-23 entry H          line    70 file /home/r08543048/miniconda3/share/psi4/basis/jun-cc-pvtz-jkfit.gbs 

  ==> Pre-Iterations <==

   -------------------------------------------------------
    Irrep   Nso     Nmo     Nalpha   Nbeta   Ndocc  Nsocc
   -------------------------------------------------------
     A        497     497       0       0       0       0
   -------------------------------------------------------
    Total     497     497      29      29      29       0
   -------------------------------------------------------

  ==> Integral Setup <==

  ==> DiskDFJK: Density-Fitted J/K Matrices <==

    J tasked:                  Yes
    K tasked:                  Yes
    wK tasked:                  No
    OpenMP threads:              1
    Integrals threads:           1
    Memory [MiB]:            15735
    Algorithm:                Core
    Integral Cache:           SAVE
    Schwarz Cutoff:          1E-12
    Fitting Condition:       1E-10

   => Auxiliary Basis Set <=

  Basis Set: (JUN-CC-PVTZ AUX)
    Blend: JUN-CC-PVTZ-JKFIT
    Number of shells: 363
    Number of basis function: 1145
    Number of Cartesian functions: 1372
    Spherical Harmonics?: true
    Max angular momentum: 4

  Minimum eigenvalue in the overlap matrix is 3.2387980014E-05.
  Using Symmetric Orthogonalization.

  SCF Guess: Superposition of Atomic Densities via on-the-fly atomic UHF.

  ==> Iterations <==

                           Total Energy        Delta E     RMS |[F,P]|

   @DF-RHF iter SAD:  -273.25038898366512   -2.73250e+02   0.00000e+00 
   @DF-RHF iter   1:  -274.13918468441352   -8.88796e-01   1.47067e-03 DIIS
   @DF-RHF iter   2:  -274.40733384635791   -2.68149e-01   6.72598e-04 DIIS
   @DF-RHF iter   3:  -274.46529829292700   -5.79644e-02   1.23615e-04 DIIS
   @DF-RHF iter   4:  -274.46904206326974   -3.74377e-03   3.79340e-05 DIIS
   @DF-RHF iter   5:  -274.46927229706108   -2.30234e-04   9.47973e-06 DIIS
   @DF-RHF iter   6:  -274.46929025358997   -1.79565e-05   2.08745e-06 DIIS
   @DF-RHF iter   7:  -274.46929121185588   -9.58266e-07   5.80946e-07 DIIS
   @DF-RHF iter   8:  -274.46929128733530   -7.54794e-08   1.42323e-07 DIIS
   @DF-RHF iter   9:  -274.46929129413252   -6.79722e-09   5.21555e-08 DIIS
   @DF-RHF iter  10:  -274.46929129522164   -1.08912e-09   1.76891e-08 DIIS
   @DF-RHF iter  11:  -274.46929129533532   -1.13687e-10   5.50314e-09 DIIS
  Energy and wave function converged.


  ==> Post-Iterations <==

    Orbital Energies [Eh]
    ---------------------

    Doubly Occupied:                                                      

       1A    -11.231562     2A    -11.225074     3A    -11.218152  
       4A    -11.214879     5A    -11.210561     6A    -11.204043  
       7A    -11.202394     8A     -1.082242     9A     -1.049704  
      10A     -0.988942    11A     -0.920480    12A     -0.856887  
      13A     -0.795446    14A     -0.756840    15A     -0.644718  
      16A     -0.621912    17A     -0.607459    18A     -0.595021  
      19A     -0.585348    20A     -0.544904    21A     -0.535877  
      22A     -0.527085    23A     -0.516630    24A     -0.487640  
      25A     -0.478165    26A     -0.470764    27A     -0.470414  
      28A     -0.463448    29A     -0.358033  

    Virtual:                                                              

      30A      0.049548    31A      0.052827    32A      0.055717  
      33A      0.058025    34A      0.068718    35A      0.075950  
      36A      0.080068    37A      0.086683    38A      0.091525  
      39A      0.103608    40A      0.108272    41A      0.110543  
      42A      0.118496    43A      0.122491    44A      0.130773  
      45A      0.132402    46A      0.137277    47A      0.147004  
      48A      0.151192    49A      0.157647    50A      0.171469  
      51A      0.174054    52A      0.187038    53A      0.190436  
      54A      0.196522    55A      0.207741    56A      0.217408  
      57A      0.219838    58A      0.233334    59A      0.265185  
      60A      0.266882    61A      0.271868    62A      0.282984  
      63A      0.291337    64A      0.296738    65A      0.300816  
      66A      0.302002    67A      0.303101    68A      0.314597  
      69A      0.319449    70A      0.326629    71A      0.333500  
      72A      0.336939    73A      0.341580    74A      0.345475  
      75A      0.347115    76A      0.354077    77A      0.354866  
      78A      0.361901    79A      0.366873    80A      0.369331  
      81A      0.372795    82A      0.380916    83A      0.388463  
      84A      0.391266    85A      0.399512    86A      0.407413  
      87A      0.427329    88A      0.428965    89A      0.433883  
      90A      0.445106    91A      0.450706    92A      0.453666  
      93A      0.460538    94A      0.465699    95A      0.477635  
      96A      0.484993    97A      0.500325    98A      0.503623  
      99A      0.518385   100A      0.522989   101A      0.529155  
     102A      0.533496   103A      0.537232   104A      0.545542  
     105A      0.551160   106A      0.560380   107A      0.574114  
     108A      0.579962   109A      0.588770   110A      0.596263  
     111A      0.600479   112A      0.613123   113A      0.630877  
     114A      0.655092   115A      0.665269   116A      0.670351  
     117A      0.690388   118A      0.692242   119A      0.701016  
     120A      0.718235   121A      0.733069   122A      0.740010  
     123A      0.747143   124A      0.757684   125A      0.766200  
     126A      0.772419   127A      0.778367   128A      0.785409  
     129A      0.793312   130A      0.797241   131A      0.808219  
     132A      0.813063   133A      0.816372   134A      0.824540  
     135A      0.826957   136A      0.836148   137A      0.841849  
     138A      0.851486   139A      0.865029   140A      0.867057  
     141A      0.880130   142A      0.889346   143A      0.904777  
     144A      0.907565   145A      0.920090   146A      0.922887  
     147A      0.936039   148A      0.942974   149A      0.962299  
     150A      0.968221   151A      0.984676   152A      0.990196  
     153A      1.001131   154A      1.023975   155A      1.025889  
     156A      1.029878   157A      1.051749   158A      1.065418  
     159A      1.085871   160A      1.094279   161A      1.120628  
     162A      1.128804   163A      1.143531   164A      1.158023  
     165A      1.164972   166A      1.184244   167A      1.198117  
     168A      1.203716   169A      1.208031   170A      1.222453  
     171A      1.246453   172A      1.261201   173A      1.275401  
     174A      1.289744   175A      1.299116   176A      1.319328  
     177A      1.324290   178A      1.340330   179A      1.347900  
     180A      1.356030   181A      1.373320   182A      1.382576  
     183A      1.388484   184A      1.393990   185A      1.396579  
     186A      1.409341   187A      1.415463   188A      1.424531  
     189A      1.434014   190A      1.449794   191A      1.465361  
     192A      1.468560   193A      1.477132   194A      1.484746  
     195A      1.498929   196A      1.507901   197A      1.522600  
     198A      1.538778   199A      1.539950   200A      1.570495  
     201A      1.576609   202A      1.580065   203A      1.589661  
     204A      1.593461   205A      1.602268   206A      1.621304  
     207A      1.625261   208A      1.643617   209A      1.651567  
     210A      1.656737   211A      1.665488   212A      1.675799  
     213A      1.686624   214A      1.696120   215A      1.701138  
     216A      1.712512   217A      1.728193   218A      1.743257  
     219A      1.764123   220A      1.780478   221A      1.795104  
     222A      1.802427   223A      1.813327   224A      1.824078  
     225A      1.835349   226A      1.861235   227A      1.872080  
     228A      1.881646   229A      1.910848   230A      1.932866  
     231A      1.935243   232A      1.948167   233A      1.960899  
     234A      1.972723   235A      1.992218   236A      2.005046  
     237A      2.028898   238A      2.075708   239A      2.123247  
     240A      2.143817   241A      2.262480   242A      2.713913  
     243A      2.734959   244A      2.749995   245A      2.755733  
     246A      2.764839   247A      2.773294   248A      2.795089  
     249A      2.820192   250A      2.830289   251A      2.837980  
     252A      2.847193   253A      2.859528   254A      2.869440  
     255A      2.893212   256A      2.902362   257A      2.920605  
     258A      2.935347   259A      2.941150   260A      2.946726  
     261A      2.962742   262A      2.976199   263A      2.983738  
     264A      3.004915   265A      3.016773   266A      3.024902  
     267A      3.050978   268A      3.071632   269A      3.081734  
     270A      3.090653   271A      3.101931   272A      3.123750  
     273A      3.131154   274A      3.134808   275A      3.144575  
     276A      3.148864   277A      3.161313   278A      3.175739  
     279A      3.189526   280A      3.213238   281A      3.224868  
     282A      3.228065   283A      3.237581   284A      3.255648  
     285A      3.268304   286A      3.277469   287A      3.294432  
     288A      3.303842   289A      3.317828   290A      3.328779  
     291A      3.332916   292A      3.341119   293A      3.352328  
     294A      3.358071   295A      3.373181   296A      3.385941  
     297A      3.388573   298A      3.393884   299A      3.400156  
     300A      3.417831   301A      3.422615   302A      3.431472  
     303A      3.439007   304A      3.445360   305A      3.458991  
     306A      3.478581   307A      3.484763   308A      3.493054  
     309A      3.503426   310A      3.505910   311A      3.517179  
     312A      3.520892   313A      3.524805   314A      3.533664  
     315A      3.540400   316A      3.554035   317A      3.561633  
     318A      3.572481   319A      3.576806   320A      3.587023  
     321A      3.594088   322A      3.608642   323A      3.619069  
     324A      3.636549   325A      3.663286   326A      3.669868  
     327A      3.696251   328A      3.707108   329A      3.727204  
     330A      3.731262   331A      3.736751   332A      3.751960  
     333A      3.764461   334A      3.775914   335A      3.786694  
     336A      3.806284   337A      3.813135   338A      3.834581  
     339A      3.840144   340A      3.842577   341A      3.856526  
     342A      3.864190   343A      3.876910   344A      3.889283  
     345A      3.903013   346A      3.925857   347A      3.937235  
     348A      3.963053   349A      3.964601   350A      3.969296  
     351A      3.976900   352A      3.985623   353A      3.992914  
     354A      4.015437   355A      4.046233   356A      4.080270  
     357A      4.096717   358A      4.116844   359A      4.121923  
     360A      4.130839   361A      4.172051   362A      4.191936  
     363A      4.210088   364A      4.215920   365A      4.223177  
     366A      4.228610   367A      4.240795   368A      4.241623  
     369A      4.267586   370A      4.283872   371A      4.302760  
     372A      4.313218   373A      4.315596   374A      4.332995  
     375A      4.337521   376A      4.343481   377A      4.349175  
     378A      4.364535   379A      4.377317   380A      4.384715  
     381A      4.397035   382A      4.405967   383A      4.414691  
     384A      4.419739   385A      4.436376   386A      4.443432  
     387A      4.455621   388A      4.458095   389A      4.464732  
     390A      4.469870   391A      4.479601   392A      4.494476  
     393A      4.513284   394A      4.516765   395A      4.531565  
     396A      4.542837   397A      4.545980   398A      4.559108  
     399A      4.586535   400A      4.593148   401A      4.608309  
     402A      4.620575   403A      4.636257   404A      4.661543  
     405A      4.668215   406A      4.676889   407A      4.706042  
     408A      4.708275   409A      4.724785   410A      4.756029  
     411A      4.757724   412A      4.782974   413A      4.791953  
     414A      4.819349   415A      4.826904   416A      4.840869  
     417A      4.870250   418A      4.889955   419A      4.909457  
     420A      4.919810   421A      4.964199   422A      4.974991  
     423A      4.996122   424A      5.006942   425A      5.012534  
     426A      5.048778   427A      5.071186   428A      5.108040  
     429A      5.142333   430A      5.186224   431A      5.200020  
     432A      5.205089   433A      5.228558   434A      5.236556  
     435A      5.250461   436A      5.262637   437A      5.279741  
     438A      5.285527   439A      5.291727   440A      5.300788  
     441A      5.302752   442A      5.314881   443A      5.345629  
     444A      5.367094   445A      5.401062   446A      5.403304  
     447A      5.412954   448A      5.437776   449A      5.453535  
     450A      5.484127   451A      5.507283   452A      5.524762  
     453A      5.576479   454A      5.595847   455A      5.608156  
     456A      5.621491   457A      5.672683   458A      5.719677  
     459A      5.729912   460A      5.745100   461A      5.751617  
     462A      5.763113   463A      5.769822   464A      5.781206  
     465A      5.786397   466A      5.806609   467A      5.819265  
     468A      5.825148   469A      5.842527   470A      5.914174  
     471A      5.915800   472A      5.937711   473A      5.942183  
     474A      5.954064   475A      5.973051   476A      6.002558  
     477A      6.033782   478A      6.107884   479A      6.202370  
     480A      6.413710   481A      6.471396   482A      6.484952  
     483A      6.498210   484A      6.505996   485A      6.526452  
     486A      6.537923   487A      6.557957   488A      6.592392  
     489A      6.611737   490A      6.715456   491A     12.432893  
     492A     13.872096   493A     14.190297   494A     14.482806  
     495A     14.501486   496A     14.721047   497A     15.423802  

    Final Occupation by Irrep:
              A 
    DOCC [    29 ]

  @DF-RHF Final Energy:  -274.46929129533532

   => Energetics <=

    Nuclear Repulsion Energy =            301.9239140415153884
    One-Electron Energy =                -967.0571624682901302
    Two-Electron Energy =                 390.6639571314394743
    Total Energy =                       -274.4692912953353243

Computation Completed


Properties will be evaluated at   0.000000,   0.000000,   0.000000 [a0]

Properties computed using the SCF density matrix

  Nuclear Dipole Moment: [e a0]
     X:     2.1485      Y:    -1.6562      Z:    -0.2142

  Electronic Dipole Moment: [e a0]
     X:    -2.2582      Y:     1.5275      Z:     0.1763

  Dipole Moment: [e a0]
     X:    -0.1098      Y:    -0.1287      Z:    -0.0378     Total:     0.1733

  Dipole Moment: [D]
     X:    -0.2790      Y:    -0.3271      Z:    -0.0962     Total:     0.4405


*** tstop() called on r282 at Fri Sep 10 21:41:01 2021
Module time:
	user time   =      59.51 seconds =       0.99 minutes
	system time =       1.34 seconds =       0.02 minutes
	total time  =         61 seconds =       1.02 minutes
Total time:
	user time   =      59.51 seconds =       0.99 minutes
	system time =       1.34 seconds =       0.02 minutes
	total time  =         61 seconds =       1.02 minutes

  //>>>>>>>>>>>>>>>>>>>>>>>>>>>>>>>>>>>//
  //            Monomer A HF           //
  //<<<<<<<<<<<<<<<<<<<<<<<<<<<<<<<<<<<//


*** tstart() called on r282
*** at Fri Sep 10 21:41:01 2021

   => Loading Basis Set <=

    Name: JUN-CC-PVTZ
    Role: ORBITAL
    Keyword: BASIS
    atoms 1-3, 12-15  entry C          line   217 file /home/r08543048/miniconda3/share/psi4/basis/jun-cc-pvtz.gbs 
    atoms 4-11, 16-23 entry H          line    36 file /home/r08543048/miniconda3/share/psi4/basis/jun-cc-pvtz.gbs 


         ---------------------------------------------------------
                                   SCF
               by Justin Turney, Rob Parrish, Andy Simmonett
                          and Daniel G. A. Smith
                              RHF Reference
                        1 Threads,  20980 MiB Core
         ---------------------------------------------------------

  ==> Geometry <==

    Molecular point group: c1
    Full point group: C1

    Geometry (in Angstrom), charge = 0, multiplicity = 1:

       Center              X                  Y                   Z               Mass       
    ------------   -----------------  -----------------  -----------------  -----------------
         C            2.820551918908     0.743628024032    -0.253855151412    12.000000000000
         C            2.103742918908    -0.563059975968    -0.569432151412    12.000000000000
         C            1.810448918908    -1.364258975968     0.692519848588    12.000000000000
         H            2.212205918908     1.360308024032     0.408948848588     1.007825032230
         H            3.771602918908     0.551766024032     0.245372848588     1.007825032230
         H            3.025369918908     1.319763024032    -1.156183151412     1.007825032230
         H            2.711510918908    -1.161163975968    -1.251889151412     1.007825032230
         H            1.168207918908    -0.347707975968    -1.089614151412     1.007825032230
         H            1.310517918908    -2.306586975968     0.467119848588     1.007825032230
         H            2.733730918908    -1.595076975968     1.226378848588     1.007825032230
         H            1.169851918908    -0.792708975968     1.366031848588     1.007825032230
      Gh(C)          -0.754681081092     1.833225024032     0.157190848588    12.000000000000
      Gh(C)          -1.279513081092     0.672733024032     0.561306848588    12.000000000000
      Gh(C)          -1.699883081092    -0.435699975968    -0.349511151412    12.000000000000
      Gh(C)          -3.193141081092    -0.738190975968    -0.219030151412    12.000000000000
      Gh(H)          -0.485520081092     2.606898024032     0.862898848588     1.007825032230
      Gh(H)          -0.582904081092     2.030832024032    -0.893844151412     1.007825032230
      Gh(H)          -1.439822081092     0.511504024032     1.624228848588     1.007825032230
      Gh(H)          -1.459050081092    -0.168665975968    -1.380627151412     1.007825032230
      Gh(H)          -1.129719081092    -1.337517975968    -0.109424151412     1.007825032230
      Gh(H)          -3.444303081092    -1.005580975968     0.807793848588     1.007825032230
      Gh(H)          -3.785758081092     0.134356024032    -0.492200151412     1.007825032230
      Gh(H)          -3.484160081092    -1.567106975968    -0.863471151412     1.007825032230

  Running in c1 symmetry.

  Rotational constants: A =      0.11225  B =      0.03396  C =      0.02896 [cm^-1]
  Rotational constants: A =   3365.04338  B =   1018.04653  C =    868.32015 [MHz]
  Nuclear repulsion =   82.859649799763275

  Charge       = 0
  Multiplicity = 1
  Electrons    = 26
  Nalpha       = 13
  Nbeta        = 13

  ==> Algorithm <==

  SCF Algorithm Type is DF.
  DIIS enabled.
  MOM disabled.
  Fractional occupation disabled.
  Guess Type is SAD.
  Energy threshold   = 1.00e-08
  Density threshold  = 1.00e-08
  Integral threshold = 0.00e+00

  ==> Primary Basis <==

  Basis Set: JUN-CC-PVTZ
    Blend: JUN-CC-PVTZ
    Number of shells: 187
    Number of basis function: 497
    Number of Cartesian functions: 555
    Spherical Harmonics?: true
    Max angular momentum: 3

   => Loading Basis Set <=

    Name: (JUN-CC-PVTZ AUX)
    Role: JKFIT
    Keyword: DF_BASIS_SCF
    atoms 1-3, 12-15  entry C          line   152 file /home/r08543048/miniconda3/share/psi4/basis/jun-cc-pvtz-jkfit.gbs 
    atoms 4-11, 16-23 entry H          line    70 file /home/r08543048/miniconda3/share/psi4/basis/jun-cc-pvtz-jkfit.gbs 

  ==> Pre-Iterations <==

   -------------------------------------------------------
    Irrep   Nso     Nmo     Nalpha   Nbeta   Ndocc  Nsocc
   -------------------------------------------------------
     A        497     497       0       0       0       0
   -------------------------------------------------------
    Total     497     497      13      13      13       0
   -------------------------------------------------------

  ==> Integral Setup <==

  ==> DiskDFJK: Density-Fitted J/K Matrices <==

    J tasked:                  Yes
    K tasked:                  Yes
    wK tasked:                  No
    OpenMP threads:              1
    Integrals threads:           1
    Memory [MiB]:            15735
    Algorithm:                Core
    Integral Cache:           LOAD
    Schwarz Cutoff:          1E-12
    Fitting Condition:       1E-10

   => Auxiliary Basis Set <=

  Basis Set: (JUN-CC-PVTZ AUX)
    Blend: JUN-CC-PVTZ-JKFIT
    Number of shells: 363
    Number of basis function: 1145
    Number of Cartesian functions: 1372
    Spherical Harmonics?: true
    Max angular momentum: 4

  Minimum eigenvalue in the overlap matrix is 3.2387980014E-05.
  Using Symmetric Orthogonalization.

  SCF Guess: Superposition of Atomic Densities via on-the-fly atomic UHF.

  ==> Iterations <==

                           Total Energy        Delta E     RMS |[F,P]|

   @DF-RHF iter SAD:  -117.72877898659642   -1.17729e+02   0.00000e+00 
   @DF-RHF iter   1:  -118.14615418736217   -4.17375e-01   1.03773e-03 DIIS
   @DF-RHF iter   2:  -118.27563614230095   -1.29482e-01   4.91178e-04 DIIS
   @DF-RHF iter   3:  -118.30612242197324   -3.04863e-02   8.24759e-05 DIIS
   @DF-RHF iter   4:  -118.30797495988958   -1.85254e-03   1.62360e-05 DIIS
   @DF-RHF iter   5:  -118.30803319798093   -5.82381e-05   4.57111e-06 DIIS
   @DF-RHF iter   6:  -118.30803781557243   -4.61759e-06   8.22730e-07 DIIS
   @DF-RHF iter   7:  -118.30803798774235   -1.72170e-07   1.55059e-07 DIIS
   @DF-RHF iter   8:  -118.30803799529249   -7.55014e-09   2.71952e-08 DIIS
   @DF-RHF iter   9:  -118.30803799553105   -2.38558e-10   5.36730e-09 DIIS
  Energy and wave function converged.


  ==> Post-Iterations <==

    Orbital Energies [Eh]
    ---------------------

    Doubly Occupied:                                                      

       1A    -11.215440     2A    -11.207848     3A    -11.207767  
       4A     -1.054383     5A     -0.924512     6A     -0.799548  
       7A     -0.625451     8A     -0.598435     9A     -0.548769  
      10A     -0.530421    11A     -0.475272    12A     -0.474620  
      13A     -0.468477  

    Virtual:                                                              

      14A      0.030985    15A      0.045089    16A      0.052186  
      17A      0.055262    18A      0.064206    19A      0.072774  
      20A      0.075504    21A      0.082048    22A      0.087936  
      23A      0.096830    24A      0.104433    25A      0.108189  
      26A      0.112956    27A      0.121639    28A      0.123930  
      29A      0.131208    30A      0.133119    31A      0.139614  
      32A      0.146441    33A      0.150589    34A      0.154397  
      35A      0.159513    36A      0.163724    37A      0.176567  
      38A      0.190643    39A      0.199507    40A      0.207595  
      41A      0.218600    42A      0.241289    43A      0.244221  
      44A      0.258484    45A      0.265251    46A      0.270382  
      47A      0.281330    48A      0.295091    49A      0.300692  
      50A      0.303986    51A      0.306631    52A      0.311249  
      53A      0.318062    54A      0.327760    55A      0.333156  
      56A      0.340172    57A      0.342959    58A      0.346868  
      59A      0.349655    60A      0.354866    61A      0.363272  
      62A      0.371086    63A      0.371478    64A      0.376678  
      65A      0.385278    66A      0.388731    67A      0.392073  
      68A      0.396931    69A      0.404521    70A      0.411758  
      71A      0.421474    72A      0.424803    73A      0.432755  
      74A      0.444465    75A      0.459222    76A      0.461551  
      77A      0.471918    78A      0.474869    79A      0.486851  
      80A      0.496793    81A      0.503167    82A      0.506831  
      83A      0.521948    84A      0.530738    85A      0.537609  
      86A      0.546104    87A      0.553805    88A      0.557763  
      89A      0.564432    90A      0.565992    91A      0.578418  
      92A      0.579708    93A      0.596353    94A      0.598295  
      95A      0.602396    96A      0.604884    97A      0.623502  
      98A      0.634595    99A      0.643365   100A      0.650434  
     101A      0.666408   102A      0.678036   103A      0.685382  
     104A      0.691322   105A      0.701626   106A      0.713618  
     107A      0.722681   108A      0.730956   109A      0.745424  
     110A      0.757281   111A      0.762971   112A      0.778102  
     113A      0.790748   114A      0.797704   115A      0.810481  
     116A      0.817071   117A      0.819163   118A      0.836107  
     119A      0.839917   120A      0.854285   121A      0.865335  
     122A      0.876631   123A      0.894684   124A      0.903187  
     125A      0.928261   126A      0.935393   127A      0.949622  
     128A      0.977877   129A      0.989850   130A      1.003914  
     131A      1.019226   132A      1.044508   133A      1.067985  
     134A      1.084445   135A      1.091070   136A      1.108371  
     137A      1.121879   138A      1.131168   139A      1.136018  
     140A      1.145696   141A      1.159565   142A      1.174819  
     143A      1.194246   144A      1.200609   145A      1.209544  
     146A      1.222803   147A      1.229225   148A      1.238069  
     149A      1.239507   150A      1.253121   151A      1.271884  
     152A      1.276316   153A      1.295140   154A      1.311886  
     155A      1.315240   156A      1.324860   157A      1.334556  
     158A      1.341566   159A      1.343993   160A      1.358013  
     161A      1.369575   162A      1.376046   163A      1.383237  
     164A      1.391272   165A      1.399230   166A      1.404598  
     167A      1.426861   168A      1.432460   169A      1.439200  
     170A      1.453809   171A      1.463016   172A      1.472481  
     173A      1.480912   174A      1.488992   175A      1.501342  
     176A      1.503918   177A      1.515255   178A      1.526581  
     179A      1.535890   180A      1.537214   181A      1.540817  
     182A      1.553543   183A      1.556881   184A      1.573191  
     185A      1.577727   186A      1.588351   187A      1.590535  
     188A      1.603757   189A      1.613082   190A      1.624534  
     191A      1.631350   192A      1.633577   193A      1.649264  
     194A      1.671296   195A      1.671780   196A      1.684360  
     197A      1.692330   198A      1.705452   199A      1.731390  
     200A      1.737054   201A      1.738218   202A      1.743215  
     203A      1.765858   204A      1.809048   205A      1.818473  
     206A      1.839459   207A      1.847676   208A      1.858923  
     209A      1.874628   210A      1.894799   211A      1.937111  
     212A      1.944034   213A      1.958259   214A      1.966565  
     215A      1.968853   216A      1.975817   217A      1.997050  
     218A      2.017066   219A      2.044034   220A      2.070746  
     221A      2.108153   222A      2.121819   223A      2.140702  
     224A      2.165028   225A      2.200801   226A      2.258922  
     227A      2.281253   228A      2.370802   229A      2.392493  
     230A      2.428867   231A      2.450512   232A      2.508990  
     233A      2.533815   234A      2.581952   235A      2.636732  
     236A      2.729373   237A      2.750631   238A      2.766779  
     239A      2.807416   240A      2.826455   241A      2.853655  
     242A      2.889135   243A      2.923064   244A      2.927141  
     245A      2.941046   246A      2.954475   247A      2.992047  
     248A      3.006287   249A      3.045836   250A      3.092340  
     251A      3.108108   252A      3.137082   253A      3.163017  
     254A      3.182230   255A      3.211991   256A      3.272469  
     257A      3.282236   258A      3.297924   259A      3.316287  
     260A      3.336959   261A      3.374397   262A      3.377485  
     263A      3.392856   264A      3.426298   265A      3.432692  
     266A      3.464410   267A      3.473364   268A      3.477213  
     269A      3.490441   270A      3.499402   271A      3.504472  
     272A      3.515346   273A      3.528078   274A      3.543350  
     275A      3.544083   276A      3.554971   277A      3.582863  
     278A      3.586843   279A      3.600160   280A      3.601450  
     281A      3.603515   282A      3.614878   283A      3.634454  
     284A      3.639406   285A      3.652265   286A      3.683414  
     287A      3.697216   288A      3.716645   289A      3.731952  
     290A      3.739105   291A      3.746880   292A      3.766445  
     293A      3.774238   294A      3.787747   295A      3.798975  
     296A      3.812795   297A      3.820896   298A      3.831934  
     299A      3.835498   300A      3.844774   301A      3.854444  
     302A      3.866137   303A      3.877184   304A      3.889135  
     305A      3.914849   306A      3.929175   307A      3.944872  
     308A      3.948379   309A      3.961721   310A      3.963534  
     311A      3.972131   312A      3.975454   313A      3.992004  
     314A      4.032821   315A      4.053465   316A      4.079265  
     317A      4.093014   318A      4.097012   319A      4.109837  
     320A      4.134502   321A      4.147466   322A      4.160641  
     323A      4.180908   324A      4.190426   325A      4.200790  
     326A      4.207527   327A      4.225871   328A      4.235312  
     329A      4.240492   330A      4.248311   331A      4.267531  
     332A      4.284556   333A      4.294424   334A      4.325511  
     335A      4.330412   336A      4.335783   337A      4.348015  
     338A      4.359161   339A      4.365906   340A      4.373534  
     341A      4.394149   342A      4.413410   343A      4.427633  
     344A      4.430522   345A      4.444462   346A      4.452250  
     347A      4.464658   348A      4.476390   349A      4.485682  
     350A      4.492705   351A      4.499216   352A      4.512183  
     353A      4.526921   354A      4.532431   355A      4.541340  
     356A      4.553386   357A      4.567977   358A      4.574883  
     359A      4.586252   360A      4.597784   361A      4.609958  
     362A      4.618708   363A      4.621590   364A      4.637827  
     365A      4.666162   366A      4.674095   367A      4.682827  
     368A      4.693945   369A      4.701531   370A      4.705821  
     371A      4.714868   372A      4.734924   373A      4.747351  
     374A      4.758097   375A      4.776909   376A      4.800798  
     377A      4.803801   378A      4.808520   379A      4.820880  
     380A      4.828142   381A      4.835079   382A      4.841869  
     383A      4.857304   384A      4.862181   385A      4.872650  
     386A      4.877873   387A      4.887620   388A      4.896718  
     389A      4.925050   390A      4.937102   391A      4.954156  
     392A      4.968339   393A      4.981761   394A      4.997021  
     395A      5.004073   396A      5.014780   397A      5.025285  
     398A      5.031494   399A      5.045561   400A      5.071960  
     401A      5.082133   402A      5.109904   403A      5.126925  
     404A      5.142690   405A      5.165249   406A      5.183199  
     407A      5.200428   408A      5.207865   409A      5.247928  
     410A      5.267018   411A      5.276563   412A      5.282482  
     413A      5.289007   414A      5.308022   415A      5.321537  
     416A      5.335322   417A      5.358777   418A      5.395140  
     419A      5.398985   420A      5.430088   421A      5.446671  
     422A      5.479201   423A      5.496820   424A      5.506193  
     425A      5.527439   426A      5.577659   427A      5.592381  
     428A      5.609691   429A      5.611403   430A      5.670986  
     431A      5.712906   432A      5.725394   433A      5.737000  
     434A      5.750135   435A      5.763860   436A      5.783147  
     437A      5.803226   438A      5.810815   439A      5.826100  
     440A      5.833436   441A      5.840638   442A      5.898691  
     443A      5.931355   444A      5.937692   445A      5.968015  
     446A      5.971788   447A      5.997289   448A      6.034925  
     449A      6.062896   450A      6.069252   451A      6.100519  
     452A      6.156512   453A      6.193017   454A      6.283691  
     455A      6.330875   456A      6.347061   457A      6.381985  
     458A      6.398513   459A      6.459844   460A      6.478428  
     461A      6.504545   462A      6.520404   463A      6.533989  
     464A      6.554529   465A      6.589200   466A      6.664525  
     467A      6.750909   468A      6.800221   469A      6.860879  
     470A      6.955823   471A      7.109252   472A      7.393859  
     473A      7.426478   474A      7.494770   475A      7.572094  
     476A      7.601622   477A      7.686509   478A      7.704852  
     479A      7.840388   480A      7.884852   481A      7.980479  
     482A      7.986554   483A      8.140556   484A      8.287012  
     485A      8.473336   486A      8.812390   487A      9.442726  
     488A      9.714280   489A      9.889463   490A     10.240409  
     491A     13.892616   492A     14.488179   493A     14.717908  
     494A     41.278353   495A     44.916999   496A     45.565710  
     497A     47.343025  

    Final Occupation by Irrep:
              A 
    DOCC [    13 ]

  @DF-RHF Final Energy:  -118.30803799553105

   => Energetics <=

    Nuclear Repulsion Energy =             82.8596497997632753
    One-Electron Energy =                -322.0734901945500610
    Two-Electron Energy =                 120.9058023992557338
    Total Energy =                       -118.3080379955310519

Computation Completed


Properties will be evaluated at   0.000000,   0.000000,   0.000000 [a0]

Properties computed using the SCF density matrix

  Nuclear Dipole Moment: [e a0]
     X:   110.5706      Y:   -19.0363      Z:    -1.0742

  Electronic Dipole Moment: [e a0]
     X:  -110.5789      Y:    19.0269      Z:     1.0436

  Dipole Moment: [e a0]
     X:    -0.0082      Y:    -0.0094      Z:    -0.0306     Total:     0.0331

  Dipole Moment: [D]
     X:    -0.0210      Y:    -0.0239      Z:    -0.0778     Total:     0.0841


*** tstop() called on r282 at Fri Sep 10 21:41:32 2021
Module time:
	user time   =      30.62 seconds =       0.51 minutes
	system time =       0.57 seconds =       0.01 minutes
	total time  =         31 seconds =       0.52 minutes
Total time:
	user time   =      90.13 seconds =       1.50 minutes
	system time =       1.91 seconds =       0.03 minutes
	total time  =         92 seconds =       1.53 minutes

  //>>>>>>>>>>>>>>>>>>>>>>>>>>>>>>>>>>>//
  //            Monomer B HF           //
  //<<<<<<<<<<<<<<<<<<<<<<<<<<<<<<<<<<<//


*** tstart() called on r282
*** at Fri Sep 10 21:41:32 2021

   => Loading Basis Set <=

    Name: JUN-CC-PVTZ
    Role: ORBITAL
    Keyword: BASIS
    atoms 1-3, 12-15  entry C          line   217 file /home/r08543048/miniconda3/share/psi4/basis/jun-cc-pvtz.gbs 
    atoms 4-11, 16-23 entry H          line    36 file /home/r08543048/miniconda3/share/psi4/basis/jun-cc-pvtz.gbs 


         ---------------------------------------------------------
                                   SCF
               by Justin Turney, Rob Parrish, Andy Simmonett
                          and Daniel G. A. Smith
                              RHF Reference
                        1 Threads,  20980 MiB Core
         ---------------------------------------------------------

  ==> Geometry <==

    Molecular point group: c1
    Full point group: C1

    Geometry (in Angstrom), charge = 0, multiplicity = 1:

       Center              X                  Y                   Z               Mass       
    ------------   -----------------  -----------------  -----------------  -----------------
      Gh(C)           2.820551918908     0.743628024032    -0.253855151412    12.000000000000
      Gh(C)           2.103742918908    -0.563059975968    -0.569432151412    12.000000000000
      Gh(C)           1.810448918908    -1.364258975968     0.692519848588    12.000000000000
      Gh(H)           2.212205918908     1.360308024032     0.408948848588     1.007825032230
      Gh(H)           3.771602918908     0.551766024032     0.245372848588     1.007825032230
      Gh(H)           3.025369918908     1.319763024032    -1.156183151412     1.007825032230
      Gh(H)           2.711510918908    -1.161163975968    -1.251889151412     1.007825032230
      Gh(H)           1.168207918908    -0.347707975968    -1.089614151412     1.007825032230
      Gh(H)           1.310517918908    -2.306586975968     0.467119848588     1.007825032230
      Gh(H)           2.733730918908    -1.595076975968     1.226378848588     1.007825032230
      Gh(H)           1.169851918908    -0.792708975968     1.366031848588     1.007825032230
         C           -0.754681081092     1.833225024032     0.157190848588    12.000000000000
         C           -1.279513081092     0.672733024032     0.561306848588    12.000000000000
         C           -1.699883081092    -0.435699975968    -0.349511151412    12.000000000000
         C           -3.193141081092    -0.738190975968    -0.219030151412    12.000000000000
         H           -0.485520081092     2.606898024032     0.862898848588     1.007825032230
         H           -0.582904081092     2.030832024032    -0.893844151412     1.007825032230
         H           -1.439822081092     0.511504024032     1.624228848588     1.007825032230
         H           -1.459050081092    -0.168665975968    -1.380627151412     1.007825032230
         H           -1.129719081092    -1.337517975968    -0.109424151412     1.007825032230
         H           -3.444303081092    -1.005580975968     0.807793848588     1.007825032230
         H           -3.785758081092     0.134356024032    -0.492200151412     1.007825032230
         H           -3.484160081092    -1.567106975968    -0.863471151412     1.007825032230

  Running in c1 symmetry.

  Rotational constants: A =      0.11225  B =      0.03396  C =      0.02896 [cm^-1]
  Rotational constants: A =   3365.04338  B =   1018.04653  C =    868.32015 [MHz]
  Nuclear repulsion =  117.482740503635782

  Charge       = 0
  Multiplicity = 1
  Electrons    = 32
  Nalpha       = 16
  Nbeta        = 16

  ==> Algorithm <==

  SCF Algorithm Type is DF.
  DIIS enabled.
  MOM disabled.
  Fractional occupation disabled.
  Guess Type is SAD.
  Energy threshold   = 1.00e-08
  Density threshold  = 1.00e-08
  Integral threshold = 0.00e+00

  ==> Primary Basis <==

  Basis Set: JUN-CC-PVTZ
    Blend: JUN-CC-PVTZ
    Number of shells: 187
    Number of basis function: 497
    Number of Cartesian functions: 555
    Spherical Harmonics?: true
    Max angular momentum: 3

   => Loading Basis Set <=

    Name: (JUN-CC-PVTZ AUX)
    Role: JKFIT
    Keyword: DF_BASIS_SCF
    atoms 1-3, 12-15  entry C          line   152 file /home/r08543048/miniconda3/share/psi4/basis/jun-cc-pvtz-jkfit.gbs 
    atoms 4-11, 16-23 entry H          line    70 file /home/r08543048/miniconda3/share/psi4/basis/jun-cc-pvtz-jkfit.gbs 

  ==> Pre-Iterations <==

   -------------------------------------------------------
    Irrep   Nso     Nmo     Nalpha   Nbeta   Ndocc  Nsocc
   -------------------------------------------------------
     A        497     497       0       0       0       0
   -------------------------------------------------------
    Total     497     497      16      16      16       0
   -------------------------------------------------------

  ==> Integral Setup <==

  ==> DiskDFJK: Density-Fitted J/K Matrices <==

    J tasked:                  Yes
    K tasked:                  Yes
    wK tasked:                  No
    OpenMP threads:              1
    Integrals threads:           1
    Memory [MiB]:            15735
    Algorithm:                Core
    Integral Cache:           LOAD
    Schwarz Cutoff:          1E-12
    Fitting Condition:       1E-10

   => Auxiliary Basis Set <=

  Basis Set: (JUN-CC-PVTZ AUX)
    Blend: JUN-CC-PVTZ-JKFIT
    Number of shells: 363
    Number of basis function: 1145
    Number of Cartesian functions: 1372
    Spherical Harmonics?: true
    Max angular momentum: 4

  Minimum eigenvalue in the overlap matrix is 3.2387980014E-05.
  Using Symmetric Orthogonalization.

  SCF Guess: Superposition of Atomic Densities via on-the-fly atomic UHF.

  ==> Iterations <==

                           Total Energy        Delta E     RMS |[F,P]|

   @DF-RHF iter SAD:  -155.38468426703815   -1.55385e+02   0.00000e+00 
   @DF-RHF iter   1:  -155.99466930247837   -6.09985e-01   1.05239e-03 DIIS
   @DF-RHF iter   2:  -156.13450216251744   -1.39833e-01   4.66134e-04 DIIS
   @DF-RHF iter   3:  -156.16247672108958   -2.79746e-02   8.98542e-05 DIIS
   @DF-RHF iter   4:  -156.16431643234225   -1.83971e-03   3.31940e-05 DIIS
   @DF-RHF iter   5:  -156.16448326270606   -1.66830e-04   6.22363e-06 DIIS
   @DF-RHF iter   6:  -156.16449208918684   -8.82648e-06   1.13452e-06 DIIS
   @DF-RHF iter   7:  -156.16449244202954   -3.52843e-07   3.06727e-07 DIIS
   @DF-RHF iter   8:  -156.16449246819440   -2.61649e-08   9.09398e-08 DIIS
   @DF-RHF iter   9:  -156.16449247079538   -2.60098e-09   3.90327e-08 DIIS
   @DF-RHF iter  10:  -156.16449247132010   -5.24722e-10   1.24380e-08 DIIS
   @DF-RHF iter  11:  -156.16449247137768   -5.75824e-11   3.12796e-09 DIIS
  Energy and wave function converged.


  ==> Post-Iterations <==

    Orbital Energies [Eh]
    ---------------------

    Doubly Occupied:                                                      

       1A    -11.231254     2A    -11.224820     3A    -11.217569  
       4A    -11.214554     5A     -1.081140     6A     -0.988155  
       7A     -0.856093     8A     -0.755643     9A     -0.643428  
      10A     -0.606709    11A     -0.585499    12A     -0.535265  
      13A     -0.517628    14A     -0.486844    15A     -0.476989  
      16A     -0.357306  

    Virtual:                                                              

      17A      0.035460    18A      0.046714    19A      0.052651  
      20A      0.052707    21A      0.065039    22A      0.073931  
      23A      0.077358    24A      0.084630    25A      0.089743  
      26A      0.100796    27A      0.104303    28A      0.108139  
      29A      0.112531    30A      0.117523    31A      0.121541  
      32A      0.132188    33A      0.134926    34A      0.140017  
      35A      0.145161    36A      0.151769    37A      0.153888  
      38A      0.164316    39A      0.170824    40A      0.178134  
      41A      0.187643    42A      0.190259    43A      0.207021  
      44A      0.210415    45A      0.226107    46A      0.241683  
      47A      0.251546    48A      0.263542    49A      0.279740  
      50A      0.282272    51A      0.286384    52A      0.292302  
      53A      0.300301    54A      0.307737    55A      0.311529  
      56A      0.320715    57A      0.324146    58A      0.330816  
      59A      0.335367    60A      0.337931    61A      0.343705  
      62A      0.349665    63A      0.353039    64A      0.360328  
      65A      0.367018    66A      0.371250    67A      0.376773  
      68A      0.382115    69A      0.384940    70A      0.397089  
      71A      0.399261    72A      0.400816    73A      0.414509  
      74A      0.426827    75A      0.436458    76A      0.438443  
      77A      0.442978    78A      0.454466    79A      0.463006  
      80A      0.470622    81A      0.477306    82A      0.488827  
      83A      0.495006    84A      0.498105    85A      0.508007  
      86A      0.520643    87A      0.524246    88A      0.526455  
      89A      0.539066    90A      0.542101    91A      0.544928  
      92A      0.558697    93A      0.571639    94A      0.580230  
      95A      0.591585    96A      0.593501    97A      0.600213  
      98A      0.612538    99A      0.615457   100A      0.621211  
     101A      0.637739   102A      0.642598   103A      0.648884  
     104A      0.661277   105A      0.665879   106A      0.675216  
     107A      0.689576   108A      0.691251   109A      0.705168  
     110A      0.713987   111A      0.724190   112A      0.743159  
     113A      0.753084   114A      0.770269   115A      0.776491  
     116A      0.782814   117A      0.801103   118A      0.810772  
     119A      0.816961   120A      0.820941   121A      0.832625  
     122A      0.845155   123A      0.862954   124A      0.874951  
     125A      0.879898   126A      0.897981   127A      0.917641  
     128A      0.920854   129A      0.933631   130A      0.962495  
     131A      0.965890   132A      0.995954   133A      1.017503  
     134A      1.023575   135A      1.032611   136A      1.065468  
     137A      1.068814   138A      1.077937   139A      1.085883  
     140A      1.094916   141A      1.120350   142A      1.128084  
     143A      1.137656   144A      1.139787   145A      1.151103  
     146A      1.160139   147A      1.165308   148A      1.192313  
     149A      1.196606   150A      1.208748   151A      1.234484  
     152A      1.237136   153A      1.245971   154A      1.255257  
     155A      1.257283   156A      1.280429   157A      1.284069  
     158A      1.289123   159A      1.299293   160A      1.304926  
     161A      1.311783   162A      1.319062   163A      1.322850  
     164A      1.346315   165A      1.347330   166A      1.354598  
     167A      1.363331   168A      1.372992   169A      1.378428  
     170A      1.392869   171A      1.407421   172A      1.422520  
     173A      1.426978   174A      1.437949   175A      1.444323  
     176A      1.454081   177A      1.456228   178A      1.473715  
     179A      1.485958   180A      1.492284   181A      1.503969  
     182A      1.513091   183A      1.518198   184A      1.524715  
     185A      1.546753   186A      1.556608   187A      1.566709  
     188A      1.579539   189A      1.584720   190A      1.598628  
     191A      1.601523   192A      1.618566   193A      1.620498  
     194A      1.635222   195A      1.646167   196A      1.658371  
     197A      1.678821   198A      1.692848   199A      1.700452  
     200A      1.711324   201A      1.721323   202A      1.728182  
     203A      1.740613   204A      1.762957   205A      1.767660  
     206A      1.788415   207A      1.793729   208A      1.809390  
     209A      1.832775   210A      1.842074   211A      1.854601  
     212A      1.877977   213A      1.894518   214A      1.911006  
     215A      1.925221   216A      1.933922   217A      1.943948  
     218A      1.968469   219A      2.021878   220A      2.045245  
     221A      2.050867   222A      2.088180   223A      2.101041  
     224A      2.135144   225A      2.148337   226A      2.180278  
     227A      2.192317   228A      2.230420   229A      2.267557  
     230A      2.345755   231A      2.383602   232A      2.398743  
     233A      2.429599   234A      2.463642   235A      2.497716  
     236A      2.565829   237A      2.605114   238A      2.613320  
     239A      2.733078   240A      2.752283   241A      2.789709  
     242A      2.826521   243A      2.839347   244A      2.856654  
     245A      2.867336   246A      2.885236   247A      2.906632  
     248A      2.947440   249A      2.964119   250A      2.991725  
     251A      3.018873   252A      3.044730   253A      3.052608  
     254A      3.087869   255A      3.101567   256A      3.122702  
     257A      3.137729   258A      3.145898   259A      3.164176  
     260A      3.218273   261A      3.232545   262A      3.237960  
     263A      3.251609   264A      3.274945   265A      3.306185  
     266A      3.320409   267A      3.338159   268A      3.348479  
     269A      3.378074   270A      3.386920   271A      3.406192  
     272A      3.416056   273A      3.435506   274A      3.444489  
     275A      3.474004   276A      3.478719   277A      3.502687  
     278A      3.505101   279A      3.519142   280A      3.523082  
     281A      3.535858   282A      3.542141   283A      3.554517  
     284A      3.566886   285A      3.575556   286A      3.576890  
     287A      3.584446   288A      3.601264   289A      3.603838  
     290A      3.613019   291A      3.631985   292A      3.645005  
     293A      3.648101   294A      3.662689   295A      3.697938  
     296A      3.706176   297A      3.717279   298A      3.735477  
     299A      3.742491   300A      3.745734   301A      3.753375  
     302A      3.764228   303A      3.791772   304A      3.797852  
     305A      3.817097   306A      3.834854   307A      3.836152  
     308A      3.849103   309A      3.854831   310A      3.876687  
     311A      3.881694   312A      3.895955   313A      3.902172  
     314A      3.914286   315A      3.928641   316A      3.937113  
     317A      3.953924   318A      3.977715   319A      3.993787  
     320A      3.999072   321A      4.011146   322A      4.031710  
     323A      4.065013   324A      4.072565   325A      4.088798  
     326A      4.100030   327A      4.115520   328A      4.129612  
     329A      4.144063   330A      4.178776   331A      4.182084  
     332A      4.191852   333A      4.198555   334A      4.223384  
     335A      4.224989   336A      4.234730   337A      4.246628  
     338A      4.271337   339A      4.298513   340A      4.313363  
     341A      4.325678   342A      4.345463   343A      4.356515  
     344A      4.363542   345A      4.372373   346A      4.382307  
     347A      4.393450   348A      4.402437   349A      4.412550  
     350A      4.418413   351A      4.430362   352A      4.441166  
     353A      4.451599   354A      4.460743   355A      4.468470  
     356A      4.481384   357A      4.485947   358A      4.498509  
     359A      4.518846   360A      4.527957   361A      4.533768  
     362A      4.540317   363A      4.561425   364A      4.570632  
     365A      4.573365   366A      4.603580   367A      4.619214  
     368A      4.626549   369A      4.637637   370A      4.640804  
     371A      4.655473   372A      4.676622   373A      4.681978  
     374A      4.699129   375A      4.711016   376A      4.713750  
     377A      4.738304   378A      4.746266   379A      4.755604  
     380A      4.777173   381A      4.785966   382A      4.790802  
     383A      4.815200   384A      4.821402   385A      4.830540  
     386A      4.836604   387A      4.838900   388A      4.858300  
     389A      4.866839   390A      4.872634   391A      4.898660  
     392A      4.912450   393A      4.918162   394A      4.929953  
     395A      4.939026   396A      4.948883   397A      4.959372  
     398A      4.966086   399A      4.975333   400A      4.981977  
     401A      4.989996   402A      4.998523   403A      5.007333  
     404A      5.036753   405A      5.044958   406A      5.067592  
     407A      5.071996   408A      5.106591   409A      5.119213  
     410A      5.137083   411A      5.149908   412A      5.172980  
     413A      5.201915   414A      5.210702   415A      5.229029  
     416A      5.239280   417A      5.250882   418A      5.272149  
     419A      5.290455   420A      5.293627   421A      5.308680  
     422A      5.319318   423A      5.368117   424A      5.384260  
     425A      5.399805   426A      5.414395   427A      5.427047  
     428A      5.441143   429A      5.483992   430A      5.516278  
     431A      5.579976   432A      5.606731   433A      5.614669  
     434A      5.622637   435A      5.632804   436A      5.637284  
     437A      5.650249   438A      5.677942   439A      5.724509  
     440A      5.746825   441A      5.761479   442A      5.784756  
     443A      5.831363   444A      5.836276   445A      5.905818  
     446A      5.917441   447A      5.929960   448A      5.949380  
     449A      5.973027   450A      6.025359   451A      6.036723  
     452A      6.063888   453A      6.195239   454A      6.200598  
     455A      6.209115   456A      6.264562   457A      6.350956  
     458A      6.358272   459A      6.379666   460A      6.412300  
     461A      6.432148   462A      6.451168   463A      6.476111  
     464A      6.497372   465A      6.501894   466A      6.507716  
     467A      6.517555   468A      6.606078   469A      6.627900  
     470A      6.716377   471A      6.779495   472A      6.906173  
     473A      7.005545   474A      7.310981   475A      7.488285  
     476A      7.562886   477A      7.597197   478A      7.637468  
     479A      7.685007   480A      7.698062   481A      7.811534  
     482A      7.838223   483A      7.869714   484A      7.914384  
     485A      8.047568   486A      8.208374   487A      8.516290  
     488A      9.580010   489A      9.899686   490A      9.948950  
     491A     12.441107   492A     14.170731   493A     14.492090  
     494A     15.421146   495A     44.405412   496A     45.399948  
     497A     45.863533  

    Final Occupation by Irrep:
              A 
    DOCC [    16 ]

  @DF-RHF Final Energy:  -156.16449247137768

   => Energetics <=

    Nuclear Repulsion Energy =            117.4827405036357817
    One-Electron Energy =                -441.7366760728526174
    Two-Electron Energy =                 168.0894430978391370
    Total Energy =                       -156.1644924713776845

Computation Completed


Properties will be evaluated at   0.000000,   0.000000,   0.000000 [a0]

Properties computed using the SCF density matrix

  Nuclear Dipole Moment: [e a0]
     X:  -108.4222      Y:    17.3800      Z:     0.8600

  Electronic Dipole Moment: [e a0]
     X:   108.3485      Y:   -17.5332      Z:    -0.8854

  Dipole Moment: [e a0]
     X:    -0.0737      Y:    -0.1531      Z:    -0.0254     Total:     0.1718

  Dipole Moment: [D]
     X:    -0.1874      Y:    -0.3893      Z:    -0.0645     Total:     0.4368


*** tstop() called on r282 at Fri Sep 10 21:42:09 2021
Module time:
	user time   =      36.85 seconds =       0.61 minutes
	system time =       0.65 seconds =       0.01 minutes
	total time  =         37 seconds =       0.62 minutes
Total time:
	user time   =     126.98 seconds =       2.12 minutes
	system time =       2.56 seconds =       0.04 minutes
	total time  =        129 seconds =       2.15 minutes
  Constructing Basis Sets for SAPT...

   => Loading Basis Set <=

    Name: (JUN-CC-PVTZ AUX)
    Role: RIFIT
    Keyword: DF_BASIS_SAPT
    atoms 1-3, 12-15  entry C          line   132 file /home/r08543048/miniconda3/share/psi4/basis/jun-cc-pvtz-ri.gbs 
    atoms 4-11, 16-23 entry H          line    30 file /home/r08543048/miniconda3/share/psi4/basis/jun-cc-pvtz-ri.gbs 


  //>>>>>>>>>>>>>>>>>>>>>>>>>>>>>>>>>>>//
  //               SAPT0               //
  //<<<<<<<<<<<<<<<<<<<<<<<<<<<<<<<<<<<//


*** tstart() called on r282
*** at Fri Sep 10 21:42:09 2021

        SAPT0  
    Ed Hohenstein
     6 June 2009

      Orbital Information
  --------------------------
    NSO        =       497
    NMO        =       497
    NRI        =      1159
    NOCC A     =        13
    NOCC B     =        16
    FOCC A     =         0
    FOCC B     =         0
    NVIR A     =       484
    NVIR B     =       481

    Elst10,r            =    -0.002411805899 [Eh]
    Exch10              =     0.006305673167 [Eh]
    Exch10 (S^2)        =     0.006285856505 [Eh]

    Iter     Energy [mEh]          dE [mEh]         Residual      Time [s]
       1      -0.44583084       0.445830842       3.191757017             1
       2      -0.49710603       0.051275183       1.057968163             2
       3      -0.51510786       0.018001833       0.189503896             3
       4      -0.51494336      -0.000164495       0.055299867             4
       5      -0.51437548      -0.000567885       0.009850632             4
       6      -0.51444603       0.000070553       0.002636698             5
       7      -0.51445218       0.000006149       0.000599001             6
       8      -0.51444928      -0.000002900       0.000144374             7
       9      -0.51444925      -0.000000035       0.000032714             8
      10      -0.51444937       0.000000123       0.000007090             9
      11      -0.51444937      -0.000000004       0.000002013            10
      12      -0.51444936      -0.000000005       0.000000492            11

    CHF Iterations converged


    Iter     Energy [mEh]          dE [mEh]         Residual      Time [s]
       1      -0.90407705       0.904077049       3.994838223             1
       2      -1.15255553       0.248478478       0.940164526             2
       3      -1.15161009      -0.000945433       0.371358880             3
       4      -1.14730496      -0.004305131       0.087615650             3
       5      -1.14755824       0.000253282       0.031959804             4
       6      -1.14782880       0.000270553       0.006708309             5
       7      -1.14781243      -0.000016367       0.002496738             6
       8      -1.14779996      -0.000012468       0.000729071             7
       9      -1.14780418       0.000004213       0.000203616             8
      10      -1.14780439       0.000000213       0.000067350             9
      11      -1.14780409      -0.000000294       0.000016226            10
      12      -1.14780410       0.000000011       0.000003816            11
      13      -1.14780412       0.000000013       0.000000968            12

    CHF Iterations converged

    Ind20,r (A<-B)      =    -0.000514449360 [Eh]
    Ind20,r (B<-A)      =    -0.001147804118 [Eh]
    Ind20,r             =    -0.001662253478 [Eh]
    Exch-Ind20,r (A<-B) =     0.000400342570 [Eh]
    Exch-Ind20,r (B<-A) =     0.001122156851 [Eh]
    Exch-Ind20,r        =     0.001522499421 [Eh]
    Disp20              =    -0.007843385739 [Eh]
    Disp20 (SS)         =    -0.003921692870 [Eh]
    Disp20 (OS)         =    -0.003921692870 [Eh]
    Exch-Disp20         =     0.000813135876 [Eh]
    Exch-Disp20 (SS)    =     0.000527188384 [Eh]
    Exch-Disp20 (OS)    =     0.000285947492 [Eh]

    SAPT Results 
  --------------------------------------------------------------------------------------------------------
    Electrostatics                 -2.41180590 [mEh]      -1.51343105 [kcal/mol]      -6.33219551 [kJ/mol]
      Elst10,r                     -2.41180590 [mEh]      -1.51343105 [kcal/mol]      -6.33219551 [kJ/mol]

    Exchange                        6.30567317 [mEh]       3.95686965 [kcal/mol]      16.55554262 [kJ/mol]
      Exch10                        6.30567317 [mEh]       3.95686965 [kcal/mol]      16.55554262 [kJ/mol]
      Exch10(S^2)                   6.28585651 [mEh]       3.94443451 [kcal/mol]      16.50351398 [kJ/mol]

    Induction                      -0.65469569 [mEh]      -0.41082775 [kcal/mol]      -1.71890331 [kJ/mol]
      Ind20,r                      -1.66225348 [mEh]      -1.04307981 [kcal/mol]      -4.36424591 [kJ/mol]
      Exch-Ind20,r                  1.52249942 [mEh]       0.95538281 [kcal/mol]       3.99732168 [kJ/mol]
      delta HF,r (2)               -0.51494164 [mEh]      -0.32313076 [kcal/mol]      -1.35197908 [kJ/mol]

    Dispersion                     -7.03024986 [mEh]      -4.41154839 [kcal/mol]     -18.45791847 [kJ/mol]
      Disp20                       -7.84338574 [mEh]      -4.92179886 [kcal/mol]     -20.59280642 [kJ/mol]
      Exch-Disp20                   0.81313588 [mEh]       0.51025047 [kcal/mol]       2.13488795 [kJ/mol]
      Disp20 (SS)                  -3.92169287 [mEh]      -2.46089943 [kcal/mol]     -10.29640321 [kJ/mol]
      Disp20 (OS)                  -3.92169287 [mEh]      -2.46089943 [kcal/mol]     -10.29640321 [kJ/mol]
      Exch-Disp20 (SS)              0.52718838 [mEh]       0.33081571 [kcal/mol]       1.38413291 [kJ/mol]
      Exch-Disp20 (OS)              0.28594749 [mEh]       0.17943476 [kcal/mol]       0.75075504 [kJ/mol]

  Total HF                          3.23917157 [mEh]       2.03261085 [kcal/mol]       8.50444379 [kJ/mol]
  Total SAPT0                      -3.79107829 [mEh]      -2.37893754 [kcal/mol]      -9.95347468 [kJ/mol]

  Special recipe for scaled SAPT0 (see Manual):
    Electrostatics sSAPT0          -2.41180590 [mEh]      -1.51343105 [kcal/mol]      -6.33219551 [kJ/mol]
    Exchange sSAPT0                 6.30567317 [mEh]       3.95686965 [kcal/mol]      16.55554262 [kJ/mol]
    Induction sSAPT0               -0.64025085 [mEh]      -0.40176347 [kcal/mol]      -1.68097838 [kJ/mol]
    Dispersion sSAPT0              -7.02253517 [mEh]      -4.40670735 [kcal/mol]     -18.43766354 [kJ/mol]
  Total sSAPT0                     -3.76891875 [mEh]      -2.36503222 [kcal/mol]      -9.89529481 [kJ/mol]
  --------------------------------------------------------------------------------------------------------

*** tstop() called on r282 at Fri Sep 10 21:44:00 2021
Module time:
	user time   =      93.22 seconds =       1.55 minutes
	system time =      15.96 seconds =       0.27 minutes
	total time  =        111 seconds =       1.85 minutes
Total time:
	user time   =     220.35 seconds =       3.67 minutes
	system time =      18.52 seconds =       0.31 minutes
	total time  =        240 seconds =       4.00 minutes

    Psi4 stopped on: Friday, 10 September 2021 09:44PM
    Psi4 wall time for execution: 0:04:00.50

*** Psi4 exiting successfully. Buy a developer a beer!
